 vasp.4.6.36 17Feb09 complex 
 executed on             LinuxIFC date 2013.02.13  10:33:50
 running on   39 nodes
 distr:  one band on    1 nodes,   39 groups


--------------------------------------------------------------------------------------------------------


 INCAR:
 POTCAR:   PAW_PBE Fe 06Sep2000                   
 POTCAR:   PAW_PBE Fe 06Sep2000                   
   VRHFIN =Fe:  d7 s1                                                           
   LEXCH  = PE                                                                  
   EATOM  =   594.4687 eV,   43.6922 Ry                                         
                                                                                
   TITEL  = PAW_PBE Fe 06Sep2000                                                
   LULTRA =        F    use ultrasoft PP ?                                      
   IUNSCR =        1    unscreen: 0-lin 1-nonlin 2-no                           
   RPACOR =    2.000    partial core radius                                     
   POMASS =   55.847; ZVAL   =    8.000    mass and valenz                      
   RCORE  =    2.300    outmost cutoff radius                                   
   RWIGS  =    2.460; RWIGS  =    1.302    wigner-seitz radius (au A)           
   ENMAX  =  267.883; ENMIN  =  200.912 eV                                      
   RCLOC  =    1.701    cutoff for local pot                                    
   LCOR   =        T    correct aug charges                                     
   LPAW   =        T    paw PP                                                  
   EAUG   =  511.368                                                            
   DEXC   =    -.022                                                            
   RMAX   =    2.817    core radius for proj-oper                               
   RAUG   =    1.300    factor for augmentation sphere                          
   RDEP   =    2.442    radius for radial grids                                 
   QCUT   =   -4.437; QGAM   =    8.874    optimization parameters              
                                                                                
   Description                                                                  
     l     E      TYP  RCUT    TYP  RCUT                                        
     2   .000     23  2.300                                                     
     2   .000     23  2.300                                                     
     0   .000     23  2.300                                                     
     0   .000     23  2.300                                                     
     1  -.200     23  2.300                                                     
     1   .000     23  2.300                                                     
     3   .000      7   .000                                                     
  local pseudopotential read in
  partial core-charges read in
  atomic valenz-charges read in
  non local Contribution for L=           2  read in
    real space projection operators read in
  non local Contribution for L=           2  read in
    real space projection operators read in
  non local Contribution for L=           0  read in
    real space projection operators read in
  non local Contribution for L=           0  read in
    real space projection operators read in
  non local Contribution for L=           1  read in
    real space projection operators read in
  non local Contribution for L=           1  read in
    real space projection operators read in
    PAW grid and wavefunctions read in
 
   number of l-projection  operators is LMAX  =           6
   number of lm-projection operators is LMMAX =          18
 
 Optimization of the real space projectors (new method)

 maximal supplied QI-value         = 16.25
 optimisation between [QCUT,QGAM] = [  8.78, 17.71] = [ 21.57, 87.87] Ry 
 Optimized for a Real-space Cutoff    1.38 Angstroem

   l    n(q)    QCUT    max X(q) W(low)/X(q) W(high)/X(q)  e(spline) 
   2      6     8.776     4.378    0.25E-03    0.20E-03    0.28E-07
   2      6     8.776    23.237    0.13E-02    0.22E-02    0.20E-06
   0      7     8.776    17.641    0.66E-04    0.26E-05    0.16E-07
   0      7     8.776    50.908    0.74E-03    0.27E-03    0.25E-06
   1      7     8.776     6.148    0.13E-03    0.25E-03    0.21E-07
   1      7     8.776     8.345    0.28E-03    0.64E-03    0.11E-06
 PAW_PBE Fe 06Sep2000                   :
 energy of atom  1       EATOM= -594.4687
 kinetic energy error for atom=    0.0269 (will be added to EATOM!!)
 
 EXHCAR: internal setup
 exchange correlation table for  LEXCH =        8
   RHO(1)=    0.500       N(1)  =     2000
   RHO(2)=  100.500       N(2)  =     4000
 
 POSCAR:  QM atoms created by QMCL               
  positions in direct lattice
  No initial velocities read in
 


--------------------------------------------------------------------------------------------------------


 ion  position               nearest neighbor table
   1  0.256  0.265  0.334-   4 2.45  20 2.45  26 2.46  21 2.46  21 2.83   4 2.83  20 2.84  26 2.84

   2  0.256  0.382  0.335-  27 2.45  32 2.46   8 2.46  26 2.46   4 2.46   3 2.46   8 2.83  26 2.83
                            27 2.83   3 2.84  32 2.84   4 2.84
   3  0.186  0.382  0.002-   6 2.45   4 2.45   8 2.45   2 2.46   6 2.83   4 2.83   2 2.84   8 2.84

   4  0.221  0.323  0.668-   3 2.45   1 2.45   2 2.46  26 2.46   3 2.83   1 2.83  26 2.83   2 2.84

   5  0.256  0.500  0.336-  38 2.45   8 2.45  33 2.45  32 2.46  12 2.46   7 2.46  38 2.83  32 2.83
                            33 2.83   7 2.84   8 2.84  12 2.84
   6  0.151  0.441  0.335-   7 2.45   3 2.45   8 2.46   3 2.83   8 2.84   7 2.84
   7  0.186  0.500  0.002-  12 2.45   6 2.45   8 2.45  10 2.46   5 2.46  12 2.83   8 2.83   5 2.84
                             6 2.84  10 2.84
   8  0.221  0.441  0.669-   5 2.45   7 2.45  32 2.45   3 2.45   2 2.46   6 2.46   2 2.83   7 2.83
                            32 2.84   6 2.84   5 2.84   3 2.84
   9  0.256  0.618  0.335-  39 2.45  12 2.45  44 2.45  11 2.46  38 2.46  14 2.46  12 2.83  39 2.83
                            44 2.83  11 2.84  38 2.84  14 2.84
  10  0.151  0.559  0.335-  11 2.45   7 2.46  12 2.46  11 2.83  12 2.84   7 2.84
  11  0.186  0.618  0.001-  10 2.45  14 2.45   9 2.46  12 2.46  10 2.83  14 2.83   9 2.84  12 2.84

  12  0.221  0.559  0.669-   7 2.45  38 2.45   9 2.45   5 2.46  11 2.46  10 2.46   9 2.83   7 2.83
                            38 2.83  10 2.84   5 2.84  11 2.84
  13  0.256  0.735  0.334-  14 2.45  49 2.45  45 2.46  44 2.46  45 2.83  14 2.83  49 2.84  44 2.84

  14  0.221  0.677  0.668-  11 2.45  13 2.45  44 2.46   9 2.46  11 2.83  44 2.83  13 2.83   9 2.84

  15  0.465  0.147  0.335-  50 2.46  19 2.46  55 2.46  19 2.83  50 2.84  55 2.84
  16  0.465  0.265  0.336-  56 2.45  18 2.45  25 2.45  55 2.46  19 2.46  61 2.46  56 2.83  18 2.83
                            55 2.84  25 2.84  19 2.84  61 2.84
  17  0.360  0.206  0.335-  21 2.45  19 2.46  20 2.46  18 2.46  19 2.83  20 2.83  21 2.83  18 2.84

  18  0.395  0.265  0.002-  16 2.45  23 2.45  19 2.45  21 2.46  17 2.46  25 2.46  16 2.83  23 2.83
                            21 2.83  19 2.84  17 2.84  25 2.84
  19  0.430  0.206  0.669-  55 2.45  18 2.45  17 2.46  15 2.46  16 2.46  55 2.83  17 2.83  15 2.83
                            18 2.84  16 2.84
  20  0.290  0.206  0.001-   1 2.45  21 2.46  17 2.46  17 2.83   1 2.84  21 2.84
  21  0.325  0.265  0.668-  17 2.45  26 2.45  18 2.46  20 2.46   1 2.46  23 2.46   1 2.83  18 2.83
                            26 2.83  17 2.83  20 2.84  23 2.84
  22  0.465  0.382  0.337-  62 2.45  31 2.45  24 2.45  61 2.45  67 2.46  25 2.46  62 2.83  24 2.83
                            31 2.83  61 2.83  67 2.84  25 2.84
  23  0.360  0.323  0.335-  25 2.45  18 2.45  27 2.45  26 2.46  21 2.46  24 2.46  25 2.83  26 2.83
                            18 2.83  27 2.83  21 2.84  24 2.84
  24  0.395  0.382  0.002-  29 2.45  22 2.45  27 2.45  25 2.45  23 2.46  31 2.46  22 2.83  27 2.83
                            29 2.83  25 2.83  23 2.84  31 2.84
  25  0.430  0.323  0.668-  61 2.45  23 2.45  24 2.45  16 2.45  22 2.46  18 2.46  61 2.83  23 2.83
                            24 2.83  16 2.84  18 2.84  22 2.84
  26  0.291  0.323  0.001-  21 2.45   2 2.46  23 2.46  27 2.46   1 2.46   4 2.46   2 2.83  23 2.83
                             4 2.83  21 2.83  27 2.84   1 2.84
  27  0.326  0.382  0.668-  24 2.45   2 2.45  23 2.45  32 2.46  26 2.46  29 2.46  24 2.83  32 2.83
                            23 2.83   2 2.83  26 2.84  29 2.84
  28  0.465  0.500  0.337-  30 2.45  37 2.45  73 2.45  31 2.45  67 2.45  68 2.46  30 2.83  73 2.83
                            67 2.83  68 2.83  37 2.83  31 2.83
  29  0.360  0.441  0.335-  24 2.45  30 2.45  32 2.45  33 2.45  27 2.46  31 2.46  24 2.83  31 2.83
                            33 2.83  32 2.83  27 2.84  30 2.84
  30  0.395  0.500  0.004-  28 2.45  29 2.45  35 2.45  37 2.45  31 2.45  33 2.46  28 2.83  33 2.83
                            31 2.83  37 2.83  29 2.84  35 2.84
  31  0.430  0.441  0.669-  67 2.45  22 2.45  28 2.45  30 2.45  29 2.46  24 2.46  67 2.83  30 2.83
                            22 2.83  29 2.83  28 2.83  24 2.84
  32  0.291  0.441  0.002-  29 2.45   8 2.45  33 2.45   2 2.46  27 2.46   5 2.46   5 2.83  27 2.83
                            29 2.83   8 2.84   2 2.84  33 2.84
  33  0.326  0.500  0.669-  35 2.45   5 2.45  29 2.45  32 2.45  30 2.46  38 2.46  30 2.83  35 2.83
                            29 2.83   5 2.83  32 2.84  38 2.84
  34  0.465  0.618  0.337-  37 2.45  74 2.45  36 2.45  79 2.45  73 2.46  43 2.46  74 2.83  36 2.83
                            37 2.83  73 2.83  79 2.83  43 2.84
  35  0.360  0.559  0.335-  36 2.45  38 2.45  30 2.45  33 2.45  37 2.46  39 2.46  37 2.83  38 2.83
                            33 2.83  36 2.83  39 2.84  30 2.84
  36  0.395  0.618  0.002-  35 2.45  39 2.45  34 2.45  43 2.45  41 2.46  37 2.46  34 2.83  39 2.83
                            35 2.83  43 2.83  41 2.84  37 2.84
  37  0.430  0.559  0.670-  73 2.45  34 2.45  28 2.45  30 2.45  35 2.46  36 2.46  73 2.83  30 2.83
                            34 2.83  35 2.83  28 2.83  36 2.84
  38  0.291  0.559  0.002-  35 2.45  12 2.45   5 2.45  39 2.45  33 2.46   9 2.46   5 2.83  35 2.83
                            39 2.83  12 2.83   9 2.84  33 2.84
  39  0.326  0.618  0.668-  36 2.45   9 2.45  41 2.45  38 2.45  44 2.46  35 2.46  36 2.83  38 2.83
                             9 2.83  41 2.84  44 2.84  35 2.84
  40  0.465  0.735  0.336-  80 2.45  42 2.45  43 2.46  83 2.46  48 2.46  79 2.46  80 2.83  42 2.83
                            83 2.84  43 2.84  48 2.84  79 2.84
  41  0.360  0.677  0.335-  43 2.45  42 2.45  39 2.45  44 2.45  45 2.46  36 2.46  43 2.83  44 2.83
                            42 2.83  39 2.84  45 2.84  36 2.84
  42  0.395  0.735  0.002-  40 2.45  41 2.45  45 2.46  48 2.46  47 2.46  43 2.46  40 2.83  45 2.83
                            41 2.83  48 2.84  47 2.84  43 2.84
  43  0.430  0.677  0.669-  79 2.45  41 2.45  36 2.45  40 2.46  34 2.46  42 2.46  79 2.83  41 2.83
                            36 2.83  40 2.84  42 2.84  34 2.84
  44  0.291  0.677  0.001-  45 2.45  41 2.45   9 2.45  14 2.46  39 2.46  13 2.46  41 2.83  14 2.83
                             9 2.83  45 2.84  39 2.84  13 2.84
  45  0.325  0.735  0.668-  47 2.45  44 2.45  42 2.46  13 2.46  49 2.46  41 2.46  13 2.83  42 2.83
                            44 2.84  47 2.84  49 2.84  41 2.84
  46  0.465  0.853  0.335-  84 2.45  83 2.46  48 2.46  48 2.84  84 2.84  83 2.84
  47  0.360  0.794  0.335-  45 2.45  48 2.45  49 2.46  42 2.46  48 2.83  49 2.83  45 2.84  42 2.84

  48  0.430  0.794  0.669-  83 2.45  47 2.45  42 2.46  46 2.46  40 2.46  83 2.83  47 2.83  46 2.84
                            42 2.84  40 2.84
  49  0.290  0.794  0.001-  13 2.45  47 2.46  45 2.46  47 2.83  13 2.84  45 2.84
  50  0.535  0.147  0.668-  15 2.46  52 2.46  55 2.46  55 2.83  15 2.84  52 2.84
  51  0.675  0.265  0.337-  53 2.45  54 2.45  86 2.45  89 2.45  85 2.46  60 2.46  60 2.83  85 2.83
                            53 2.84  86 2.84  89 2.84  54 2.84
  52  0.570  0.206  0.336-  55 2.45  54 2.45  53 2.45  50 2.46  56 2.46  55 2.83  56 2.83  54 2.83
                            50 2.84  53 2.84
  53  0.605  0.265  0.004-  56 2.45  60 2.45  51 2.45  52 2.45  54 2.46  58 2.46  56 2.83  54 2.83
                            58 2.83  51 2.84  60 2.84  52 2.84
  54  0.640  0.206  0.669-  52 2.45  51 2.45  85 2.45  53 2.46  53 2.83  52 2.83  85 2.84  51 2.84

  55  0.500  0.206  0.002-  52 2.45  19 2.45  15 2.46  56 2.46  50 2.46  16 2.46  19 2.83  52 2.83
                            50 2.83  16 2.84  15 2.84  56 2.84
  56  0.535  0.265  0.670-  16 2.45  53 2.45  58 2.46  55 2.46  61 2.46  52 2.46  16 2.83  53 2.83
                            52 2.83  61 2.84  55 2.84  58 2.84
  57  0.674  0.382  0.339-  90 2.45  59 2.45  60 2.45  66 2.46  89 2.46  94 2.46  89 2.83  66 2.83
                            59 2.83  94 2.84  60 2.84  90 2.84
  58  0.570  0.323  0.339-  61 2.45  60 2.45  59 2.45  56 2.46  62 2.46  53 2.46  61 2.83  53 2.83
                            60 2.83  59 2.84  56 2.84  62 2.84
  59  0.605  0.382  0.006-  57 2.45  58 2.45  66 2.45  62 2.46  64 2.46  60 2.46  62 2.83  60 2.83
                            57 2.83  64 2.83  66 2.84  58 2.84
  60  0.640  0.323  0.671-  58 2.45  53 2.45  89 2.45  57 2.45  59 2.46  51 2.46  51 2.83  59 2.83
                            58 2.83  57 2.84  89 2.84  53 2.84
  61  0.500  0.323  0.004-  58 2.45  25 2.45  22 2.45  62 2.46  56 2.46  16 2.46  58 2.83  25 2.83
                            22 2.83  56 2.84  62 2.84  16 2.84
  62  0.535  0.382  0.671-  64 2.45  22 2.45  67 2.45  59 2.46  61 2.46  58 2.46  22 2.83  59 2.83
                            67 2.83  64 2.83  61 2.84  58 2.84
  63  0.674  0.500  0.339-  65 2.43  95 2.45  72 2.46  94 2.46  66 2.46  99 2.46  65 2.81  99 2.83
                            94 2.83  72 2.83  66 2.83  95 2.84
  64  0.570  0.441  0.339-  62 2.45  68 2.45  67 2.45  66 2.45  59 2.46  65 2.47  67 2.83  68 2.83
                            66 2.83  59 2.83  62 2.83  65 2.84
  65  0.605  0.500  0.004-  63 2.43  66 2.44  72 2.44  70 2.47  64 2.47  68 2.47  63 2.81  66 2.83
                            72 2.83  64 2.84  70 2.84  68 2.85
  66  0.640  0.441  0.673-  65 2.44  94 2.45  64 2.45  59 2.45  57 2.46  63 2.46  65 2.83  57 2.83
                            64 2.83  94 2.83  63 2.83  59 2.84
  67  0.500  0.441  0.004-  31 2.45  62 2.45  68 2.45  28 2.45  64 2.45  22 2.46  64 2.83  31 2.83
                            28 2.83  62 2.83  22 2.84  68 2.84
  68  0.535  0.500  0.672-  73 2.45  64 2.45  70 2.45  67 2.45  28 2.46  65 2.47  70 2.83  64 2.83
                            28 2.83  73 2.84  67 2.84  65 2.85
  69  0.674  0.618  0.339- 100 2.45  71 2.45  78 2.45  72 2.46  99 2.46 102 2.46 102 2.83  72 2.83
                            99 2.83  71 2.84  78 2.84 100 2.84
  70  0.570  0.559  0.339-  74 2.45  68 2.45  73 2.45  72 2.45  71 2.46  65 2.47  73 2.83  68 2.83
                            72 2.83  74 2.83  71 2.84  65 2.84
  71  0.605  0.618  0.006-  76 2.45  69 2.45  72 2.45  74 2.46  70 2.46  78 2.46  74 2.83  78 2.83
                            76 2.83  72 2.83  69 2.84  70 2.84
  72  0.640  0.559  0.673-  65 2.44  99 2.45  70 2.45  71 2.45  69 2.46  63 2.46  65 2.83  69 2.83
                            70 2.83  71 2.83  99 2.83  63 2.83
  73  0.500  0.559  0.004-  37 2.45  68 2.45  28 2.45  74 2.45  70 2.45  34 2.46  70 2.83  37 2.83
                            28 2.83  74 2.83  34 2.83  68 2.84
  74  0.535  0.618  0.671-  70 2.45  34 2.45  73 2.45  71 2.46  79 2.46  76 2.46  34 2.83  71 2.83
                            73 2.83  70 2.83  79 2.84  76 2.84
  75  0.674  0.735  0.337-  82 2.45  77 2.45 102 2.45 103 2.45 104 2.46  78 2.46  78 2.83 104 2.83
                           102 2.84 103 2.84  77 2.84  82 2.84
  76  0.570  0.677  0.339-  79 2.45  71 2.45  78 2.45  80 2.45  74 2.46  77 2.46  79 2.83  71 2.83
                            77 2.83  78 2.84  80 2.84  74 2.84
  77  0.605  0.735  0.004-  80 2.45  78 2.45  75 2.45  81 2.45  82 2.46  76 2.46  80 2.83  82 2.83
                            76 2.83  78 2.84  75 2.84  81 2.84
  78  0.640  0.677  0.672-  76 2.45  77 2.45 102 2.45  69 2.45  71 2.46  75 2.46  75 2.83  71 2.83
                            76 2.84  69 2.84  77 2.84 102 2.84
  79  0.500  0.676  0.004-  76 2.45  43 2.45  34 2.45  74 2.46  40 2.46  80 2.46  76 2.83  43 2.83
                            34 2.83  74 2.84  80 2.84  40 2.84
  80  0.535  0.735  0.671-  40 2.45  77 2.45  76 2.45  83 2.46  79 2.46  81 2.46  40 2.83  77 2.83
                            81 2.83  79 2.84  76 2.84  83 2.84
  81  0.570  0.794  0.336-  83 2.45  82 2.45  77 2.45  84 2.46  80 2.46  83 2.83  80 2.83  82 2.83
                            84 2.84  77 2.84
  82  0.640  0.794  0.669-  81 2.45  75 2.45 104 2.45  77 2.46  77 2.83  81 2.83 104 2.84  75 2.84

  83  0.500  0.794  0.003-  81 2.45  48 2.45  46 2.46  80 2.46  40 2.46  84 2.46  48 2.83  81 2.83
                            84 2.83  40 2.84  46 2.84  80 2.84
  84  0.535  0.853  0.669-  46 2.45  81 2.46  83 2.46  83 2.83  46 2.84  81 2.84
  85  0.709  0.206  0.002-  54 2.45  86 2.46  51 2.46  51 2.83  54 2.84  86 2.84
  86  0.744  0.265  0.670-  51 2.45  85 2.46  87 2.46  89 2.46  89 2.83  87 2.84  51 2.84  85 2.84

  87  0.779  0.324  0.336-  89 2.45  86 2.46  88 2.46  90 2.46  90 2.83  88 2.83  86 2.84  89 2.84

  88  0.814  0.382  0.003-  90 2.45  93 2.46  87 2.46  91 2.46  93 2.83  91 2.83  87 2.83  90 2.84

  89  0.709  0.323  0.004-  87 2.45  60 2.45  51 2.45  90 2.46  57 2.46  86 2.46  57 2.83  86 2.83
                            90 2.84  60 2.84  51 2.84  87 2.84
  90  0.744  0.382  0.671-  57 2.45  88 2.45  89 2.46  94 2.46  91 2.46  87 2.46  94 2.83  87 2.83
                            91 2.83  89 2.84  57 2.84  88 2.84
  91  0.779  0.441  0.337-  94 2.45  93 2.45  92 2.46  95 2.46  90 2.46  88 2.46  92 2.83  88 2.83
                            95 2.83  90 2.83  94 2.84  93 2.84
  92  0.814  0.500  0.003-  95 2.45  96 2.46  93 2.46  98 2.46  91 2.46  91 2.83  96 2.83  98 2.83
                            93 2.83  95 2.84
  93  0.849  0.441  0.669-  91 2.45  88 2.46  92 2.46  88 2.83  92 2.83  91 2.84
  94  0.709  0.441  0.005-  66 2.45  91 2.45  90 2.46  63 2.46  57 2.46  95 2.46  90 2.83  95 2.83
                            63 2.83  66 2.83  57 2.84  91 2.84
  95  0.744  0.500  0.671-  63 2.45  92 2.45  91 2.46  96 2.46  99 2.46  94 2.46  94 2.83  96 2.83
                            99 2.83  91 2.83  63 2.84  92 2.84
  96  0.779  0.559  0.337-  99 2.45  98 2.45  92 2.46 100 2.46  95 2.46  97 2.46  92 2.83  95 2.83
                            97 2.83 100 2.83  99 2.84  98 2.84
  97  0.814  0.618  0.003- 100 2.45 101 2.46  98 2.46  96 2.46  98 2.83  96 2.83 101 2.83 100 2.84

  98  0.849  0.559  0.669-  96 2.45  97 2.46  92 2.46  97 2.83  92 2.83  96 2.84
  99  0.709  0.559  0.005-  72 2.45  96 2.45  69 2.46 100 2.46  95 2.46  63 2.46 100 2.83  95 2.83
                            63 2.83  72 2.83  69 2.83  96 2.84
 100  0.744  0.618  0.671-  69 2.45  97 2.45 102 2.46  96 2.46  99 2.46 101 2.46  99 2.83 101 2.83
                            96 2.83 102 2.84  69 2.84  97 2.84
 101  0.779  0.677  0.336- 102 2.45 103 2.46  97 2.46 100 2.46 100 2.83  97 2.83 103 2.84 102 2.84

 102  0.709  0.677  0.004-  78 2.45 101 2.45  75 2.45 100 2.46  69 2.46 103 2.46  69 2.83 103 2.83
                           100 2.84  75 2.84  78 2.84 101 2.84
 103  0.744  0.735  0.670-  75 2.45 104 2.45 101 2.46 102 2.46 102 2.83 101 2.84  75 2.84 104 2.84

 104  0.709  0.794  0.002- 103 2.45  82 2.45  75 2.46  75 2.83  82 2.84 103 2.84
 
  LATTYP: Found a simple orthorhombic cell.
 ALAT       =     2.4551800000
 B/A-ratio  =    13.4954097052
 C/A-ratio  =    13.8748442069
  
  Lattice vectors:
  
 A1 = (   0.0000000000,   0.0000000000,   2.4551800000)
 A2 = ( -33.1336600000,   0.0000000000,   0.0000000000)
 A3 = (   0.0000000000, -34.0652400000,   0.0000000000)
 Subroutine PRICEL returns:
 Original cell was already a primitive cell.
 

Analysis of symmetry for initial positions (statically):

 Routine SETGRP: Setting up the symmetry group for a 
 simple orthorhombic supercell.


 Subroutine GETGRP returns: Found  1 space group operations
 (whereof  1 operations were pure point group operations)
 out of a pool of  8 trial point group operations.


The static configuration has the point symmetry C_1 .

Analysis of symmetry for dynamics (positions and initial velocities):

 Subroutine DYNSYM returns: Found  1 space group operations
 (whereof  1 operations were pure point group operations)
 out of a pool of  1 trial space group operations
 (whereof  1 operations were pure point group operations)
 and found also     1 'primitive' translations


The dynamic configuration has the point symmetry C_1 .

Analysis of magnetic symmetry:

 Subroutine MAGSYM returns: Found  1 space group operations
 (whereof  1 operations were pure point group operations)
 out of a pool of  1 trial space group operations
 (whereof  1 operations were pure point group operations)
 and found also     1 'primitive' translations


The magnetic configuration has the point symmetry C_1 .
 
 
 KPOINTS: 10x10x10                                

Automatic generation of k-mesh.
 
 Subroutine IBZKPT returns following result:
 ===========================================
 
 Found      4 irreducible k-points:
 
 Following reciprocal coordinates:
            Coordinates               Weight
  0.000000  0.000000  0.000000      1.000000
  0.000000  0.000000  0.142857      2.000000
  0.000000  0.000000  0.285714      2.000000
  0.000000  0.000000  0.428571      2.000000
 
 Following cartesian coordinates:
            Coordinates               Weight
  0.000000  0.000000  0.000000      1.000000
  0.000000  0.000000  0.058186      2.000000
  0.000000  0.000000  0.116372      2.000000
  0.000000  0.000000  0.174558      2.000000
 


--------------------------------------------------------------------------------------------------------




 Dimension of arrays:
   k-Points           NKPTS =      4   number of bands    NBANDS=    663
   number of dos      NEDOS =    301   number of ions     NIONS =    104
   non local maximal  LDIM  =      6   non local SUM 2l+1 LMDIM =     18
   total plane-waves  NPLWV = 201600
   max r-space proj   IRMAX =    842   max aug-charges    IRDMAX=   2021
   dimension x,y,z NGX =   140 NGY =  144 NGZ =   10
   dimension x,y,z NGXF=   250 NGYF=  252 NGZF=   18
   support grid    NGXF=   250 NGYF=  252 NGZF=   18
   ions per type =             104
 NGX,Y,Z   is equivalent  to a cutoff of   7.02,  7.03,  6.77 a.u.
 NGXF,Y,Z  is equivalent  to a cutoff of  12.54, 12.30, 12.19 a.u.


 I would recommend the setting:
   dimension x,y,z NGX =   140 NGY =  144 NGZ =   10
 SYSTEM =  bcc iron                                
 POSCAR =   QM atoms created by QMCL               

 Startparameter for this run:
   NWRITE =      2    write-flag & timer
   PREC   = medium    medium, high low
   ISTART =      1    job   : 0-new  1-cont  2-samecut
   ICHARG =      1    charge: 1-file 2-atom 10-const
   ISPIN  =      2    spin polarized calculation?
   LNONCOLLINEAR =      F non collinear calculations
   LSORBIT =      F    spin-orbit coupling
   INIWAV =      1    electr: 0-lowe 1-rand  2-diag
   LASPH  =      F    aspherical Exc in radial PAW
   METAGGA=      F    non-selfconsistent MetaGGA calc.

 Electronic Relaxation 1
   ENCUT  =  300.0 eV  22.05 Ry    4.70 a.u.  46.79 48.11  3.47*2*pi/ulx,y,z
   ENINI  =  300.0     initial cutoff
   ENAUG  =  511.4 eV  augmentation charge cutoff
   NELM   =     60;   NELMIN=  4; NELMDL=  0     # of ELM steps 
   EDIFF  = 0.1E-03   stopping-criterion for ELM
   LREAL  =      T    real-space projection
   LCOMPAT=      F    compatible to vasp.4.4
   LREAL_COMPAT= F    compatible to vasp.4.5.1-3
   GGA_COMPAT  = T    GGA compatible to vasp.4.4-vasp.4.6
   LMAXPAW     = -100 max onsite density
   LMAXMIX     =    2 max onsite mixed and CHGCAR
   VOSKOWN=      0    Vosko Wilk Nusair interpolation
   ROPT   =   -0.00200
 Ionic relaxation
   EDIFFG = 0.1E-02   stopping-criterion for IOM
   NSW    =      0    number of steps for IOM
   NBLOCK =      1;   KBLOCK =      1    inner block; outer block 
   IBRION =     -1    ionic relax: 0-MD 1-quasi-New 2-CG
   NFREE  =      0    steps in history (QN), initial steepest desc. (CG)
   ISIF   =      2    stress and relaxation
   IWAVPR =     10    prediction:  0-non 1-charg 2-wave 3-comb
   ISYM   =      2    0-nonsym 1-usesym 2-fastsym
   LCORR  =      T    Harris-Foulkes like correction to forces

   POTIM  =   0.50    time-step for ionic-motion
   TEIN   =    0.0    initial temperature
   TEBEG  =    0.0;   TEEND  =   0.0 temperature during run
   SMASS  =  -3.00    Nose mass-parameter (am)
   estimated Nose-frequenzy (Omega)   =  0.10E-29 period in steps =****** mass=  -0.251E-25a.u.
   NPACO  =    256;   APACO  = 16.0  distance and # of slots for P.C.
   PSTRESS=    0.0 pullay stress

  Mass of Ions in am
   POMASS =  55.85
  Ionic Valenz
   ZVAL   =   8.00
  Atomic Wigner-Seitz radii
   RWIGS  =  -1.00
   NELECT =     832.0000    total number of electrons
   NUPDOWN=      -1.0000    fix difference up-down

 DOS related values:
   EMIN   =  10.00;   EMAX   =-10.00  energy-range for DOS
   ISMEAR =     2;   SIGMA  =   0.20  broadening in eV -4-tet -1-fermi 0-gaus

 Electronic relaxation 2 (details)
   IALGO  =     68    algorithm
   LDIAG  =      T    sub-space diagonalisation
   IMIX   =      4    mixing-type and parameters
     AMIX     =   0.05;   BMIX     =  0.00
     AMIX_MAG =   0.20;   BMIX_MAG =  0.00
     AMIN     =   0.10
     WC   =   100.;   INIMIX=   1;  MIXPRE=   1

 Intra band minimization:
   WEIMIN = 0.0000     energy-eigenvalue tresh-hold
   EBREAK =  0.38E-07  absolut break condition
   DEPER  =   0.30     relativ break condition  

   TIME   =   0.10     timestep for ELM

  volume/ion in A,a.u.               =      26.65       179.82
  Fermi-wavevector in a.u.,eV,Ry     =   1.096212 16.349858  1.201681

 Second variation
   LSECVAR=     F    do a second variation
 
 Write flags
   LWAVE  =      T    write WAVECAR
   LCHARG =      T    write CHGCAR
   LVTOT  =      F    write LOCPOT, local potential
   LELF   =      F    write electronic localiz. function (ELF)
   LORBIT =     11    0 simple, 1 ext, 2 COOP (PROOUT)


 Dipole corrections
   IDIPOL =      0    1-x, 2-y, 3-z
   LDIPOL =      F    correct potential



--------------------------------------------------------------------------------------------------------


 Static calculation
 charge density will be updated during run
 spin polarized calculation
 RMM-DIIS sequential band-by-band and
  variant of blocked Davidson during initial phase
 performe sub-space diagonalisation
    before iterative eigenvector-optimisation
 modified Broyden-mixing scheme, WC =      100.0
 initial mixing is a Kerker type mixing with AMIX =  0.0500 and BMIX =      0.0001
 Hartree-type preconditioning will be used
 using additional bands          247
 real space projection scheme for non local part
 use partial core corrections
 calculate Harris-corrections to forces 
   (improved forces if not selfconsistent)
 use gradient corrections 
 use of overlap-Matrix (Vanderbilt PP)
 Methfessel and Paxton  Order N= 2 SIGMA  =   0.20


--------------------------------------------------------------------------------------------------------


  energy-cutoff  :      300.00
  volume of cell :     2771.18
      direct lattice vectors                 reciprocal lattice vectors
    33.133660000  0.000000000  0.000000000     0.030180789  0.000000000  0.000000000
     0.000000000 34.065240000  0.000000000     0.000000000  0.029355437  0.000000000
     0.000000000  0.000000000  2.455180000     0.000000000  0.000000000  0.407302112

  length of vectors
    33.133660000 34.065240000  2.455180000     0.030180789  0.029355437  0.407302112


 
 old parameters found on file WAVECAR:
  energy-cutoff  :      300.00
  volume of cell :     2771.18
      direct lattice vectors                 reciprocal lattice vectors
    33.133660000  0.000000000  0.000000000     0.030180789  0.000000000  0.000000000
     0.000000000 34.065240000  0.000000000     0.000000000  0.029355437  0.000000000
     0.000000000  0.000000000  2.455180000     0.000000000  0.000000000  0.407302112

  length of vectors

 
 k-points in units of 2pi/SCALE and weight: 10x10x10                                
   0.00000000  0.00000000  0.00000000       0.143
   0.00000000  0.00000000  0.05818602       0.286
   0.00000000  0.00000000  0.11637203       0.286
   0.00000000  0.00000000  0.17455805       0.286
 
 k-points in reciprocal lattice and weights: 10x10x10                                
   0.00000000  0.00000000  0.00000000       0.143
   0.00000000  0.00000000  0.14285714       0.286
   0.00000000  0.00000000  0.28571429       0.286
   0.00000000  0.00000000  0.42857143       0.286
 
 position of ions in fractional coordinates (direct lattice) 
   0.25552790  0.26461930  0.33419730
   0.25565970  0.38230920  0.33486240
   0.18579170  0.38234390  0.00156650
   0.22066400  0.32348880  0.66773210
   0.25575550  0.49998690  0.33578190
   0.15090390  0.44118630  0.33538860
   0.18587760  0.50000540  0.00241870
   0.22078390  0.44116450  0.66878580
   0.25566680  0.61767600  0.33470040
   0.15090960  0.55884030  0.33529040
   0.18580350  0.61767090  0.00137490
   0.22078840  0.55883020  0.66865260
   0.25554340  0.73538820  0.33407730
   0.22068010  0.67651890  0.66753680
   0.46498080  0.14677720  0.33508780
   0.46506040  0.26453530  0.33553590
   0.36024910  0.20568900  0.33482050
   0.39524420  0.26453750  0.00150700
   0.43009770  0.20564950  0.66854190
   0.29039060  0.20573790  0.00102560
   0.32538760  0.26456400  0.66796550
   0.46511320  0.38236120  0.33689570
   0.36037860  0.32339950  0.33482200
   0.39532980  0.38227380  0.00183430
   0.43020500  0.32342630  0.66843270
   0.29052760  0.32344020  0.00123050
   0.32550710  0.38226630  0.66812270
   0.46511330  0.49999100  0.33738330
   0.36047300  0.44111420  0.33537410
   0.39542600  0.49997310  0.00415460
   0.43032150  0.44115700  0.66939920
   0.29064150  0.44113320  0.00190720
   0.32560460  0.49997250  0.66920500
   0.46509160  0.61758960  0.33723870
   0.36046010  0.55883120  0.33547640
   0.39530900  0.61767540  0.00208600
   0.43030400  0.55879840  0.66961610
   0.29063980  0.55882770  0.00183950
   0.32550120  0.61769460  0.66817020
   0.46504300  0.73542910  0.33602910
   0.36037420  0.67656560  0.33505770
   0.39523890  0.73543440  0.00184560
   0.43018890  0.67652630  0.66887060
   0.29053580  0.67654470  0.00119230
   0.32539430  0.73542520  0.66805060
   0.46496870  0.85322280  0.33536090
   0.36025160  0.79430760  0.33495150
   0.43008840  0.79433480  0.66887370
   0.29040210  0.79427360  0.00097470
   0.53484640  0.14678650  0.66821100
   0.67450220  0.26460410  0.33683390
   0.56976070  0.20567250  0.33585390
   0.60464270  0.26457830  0.00400270
   0.63960510  0.20572630  0.66920690
   0.49993040  0.20563580  0.00224760
   0.53483420  0.26455080  0.67023360
   0.67446930  0.38229280  0.33864150
   0.56971120  0.32347280  0.33862030
   0.60463400  0.38230160  0.00574260
   0.63954730  0.32343710  0.67147370
   0.49996880  0.32348490  0.00351540
   0.53482100  0.38243180  0.67076280
   0.67446000  0.50001330  0.33901440
   0.56974190  0.44117660  0.33922050
   0.60530050  0.49999880  0.00421210
   0.63957200  0.44113380  0.67260740
   0.50000800  0.44123150  0.00385460
   0.53497010  0.49999060  0.67213180
   0.67445290  0.61773380  0.33860990
   0.56973340  0.55881190  0.33908880
   0.60461630  0.61770130  0.00582110
   0.63955940  0.55888060  0.67255600
   0.49999260  0.55871840  0.00369000
   0.53479690  0.61753000  0.67103980
   0.67448060  0.73542490  0.33692220
   0.56968470  0.67651030  0.33891830
   0.60461650  0.73542510  0.00428200
   0.63952530  0.67657890  0.67155260
   0.49994450  0.67646920  0.00400730
   0.53480740  0.73542480  0.67073130
   0.56973440  0.79432470  0.33626750
   0.63958130  0.79429350  0.66943400
   0.49990970  0.79434800  0.00270740
   0.53482580  0.85321600  0.66857240
   0.70946440  0.20577550  0.00232700
   0.74436450  0.26465460  0.66966960
   0.77926840  0.32351920  0.33648050
   0.81417960  0.38236690  0.00276610
   0.70940490  0.32347540  0.00411480
   0.74431550  0.38234140  0.67083020
   0.77922730  0.44119240  0.33688180
   0.81414480  0.50002840  0.00264630
   0.84909610  0.44120200  0.66874600
   0.70938270  0.44116540  0.00519280
   0.74428650  0.50002300  0.67095510
   0.77921840  0.55885960  0.33681240
   0.81416830  0.61768880  0.00269950
   0.84908960  0.55885720  0.66869860
   0.70937160  0.55887170  0.00511110
   0.74430110  0.61770410  0.67075140
   0.77925380  0.67653200  0.33643310
   0.70938630  0.67656230  0.00408790
   0.74434790  0.73539100  0.66967170
   0.70944580  0.79426340  0.00240170
 
 position of ions in cartesian coordinates  (Angst):
   8.46657456  9.01431996  0.82051453
   8.47094158 13.02345465  0.82214747
   6.15595902 13.02463672  0.00384604
   7.31140595 11.01972361  1.63940250
   8.47411578 17.03217375  0.82440501
   4.99999852 15.02911719  0.82343938
   6.15880520 17.03280395  0.00593834
   7.31537868 15.02837457  1.64198952
   8.47117682 21.04128118  0.82174973
   5.00018738 19.03702894  0.82319828
   6.15635000 21.04110745  0.00337563
   7.31552778 19.03668488  1.64166249
   8.46708813 25.05117553  0.82021991
   7.31193940 23.04577869  1.63892300
  15.40651573  5.00000054  0.82270086
  15.40915317  9.01145848  0.82380103
  11.93637119  7.00684515  0.82204460
  13.09588694  9.01153343  0.00369996
  14.25071096  7.00549957  1.64139070
   9.62170341  7.00851094  0.00251803
  10.78128211  9.01243616  1.63997554
  15.41090263 13.02522604  0.82713958
  11.94066200 11.01668158  0.82204828
  13.09872318 13.02224874  0.00450354
  14.25426620 11.01759453  1.64112260
   9.62624272 11.01806804  0.00302110
  10.78524158 13.02199325  1.64036149
  15.41090594 17.03231341  0.82833673
  11.94378982 15.02666109  0.82340378
  13.10191064 17.03170365  0.01020029
  14.25812627 15.02811908  1.64349553
   9.63001664 15.02730833  0.00468252
  10.78847211 17.03168321  1.64301873
  15.41018694 21.03833795  0.82798171
  11.94336240 19.03671895  0.82365495
  13.09803400 21.04126074  0.00512151
  14.25754643 19.03560161  1.64402806
   9.62996032 19.03659972  0.00451630
  10.78504609 21.04191480  1.64047811
  15.40857665 25.05256879  0.82501193
  11.94051622 23.04736954  0.82262696
  13.09571133 25.05274934  0.00453128
  14.25373275 23.04603078  1.64219772
   9.62651442 23.04665758  0.00292731
  10.78150410 25.05243594  1.64018447
  15.40611482 29.06523946  0.82337137
  11.93645403 27.05827903  0.82236622
  14.25040282 27.05920560  1.64220533
   9.62208444 27.05712081  0.00239306
  17.72141877  5.00031735  1.64057828
  22.34872656  9.01380217  0.82698785
  18.87825732  7.00628307  0.82458178
  20.03402564  9.01292329  0.00982735
  21.19245792  7.00811578  1.64302340
  16.56452390  7.00503288  0.00551826
  17.72101454  9.01198649  1.64554413
  22.34763647 13.02289598  0.83142584
  18.87661720 11.01917857  0.83137379
  20.03373738 13.02319576  0.01409912
  21.19054279 11.01796244  1.64858880
  16.56579623 11.01959075  0.00863094
  17.72057717 13.02763105  1.64684341
  22.34732832 17.03307307  0.83234137
  18.87763440 15.02878676  0.83284739
  20.05582096 17.03257912  0.01034146
  21.19136119 15.02732877  1.65137224
  16.56709507 15.03065694  0.00946374
  17.72551740 17.03229979  1.65020455
  22.34709307 21.04325015  0.83134825
  18.87735277 19.03606149  0.83252404
  20.03315091 21.04214303  0.01429185
  21.19094371 19.03840177  1.65124604
  16.56658481 19.03287639  0.00905961
  17.71977865 21.03630766  1.64752350
  22.34801088 25.05242572  0.82720465
  18.87573916 23.04548573  0.83210543
  20.03315754 25.05243253  0.01051308
  21.18981385 23.04782261  1.64878251
  16.56499108 23.04408565  0.00983864
  17.72012656 25.05242231  1.64676607
  18.87738590 27.05886154  0.82559724
  21.19166934 27.05779871  1.64358097
  16.56383803 27.05965526  0.00664715
  17.72073622 29.06500781  1.64146559
  23.50715221  7.00979179  0.00571320
  24.66352026  9.01552247  1.64415941
  25.82001421 11.02075919  0.82612019
  26.97675005 13.02542022  0.00679127
  23.50518076 11.01926714  0.01010257
  24.66189671 13.02455155  1.64700889
  25.81865242 15.02932499  0.82710546
  26.97559699 17.03358745  0.00649714
  28.13366148 15.02965202  1.64189180
  23.50444519 15.02840523  0.01274926
  24.66093583 17.03340350  1.64731554
  25.81835753 19.03768640  0.82693507
  26.97637563 21.04171722  0.00662776
  28.13344612 19.03760464  1.64177543
  23.50407741 19.03809859  0.01254867
  24.66141959 21.04223842  1.64681542
  25.81953046 23.04622495  0.82600382
  23.50456447 23.04725712  0.01003653
  24.66297024 25.05127091  1.64416456
  23.50653593 27.05677334  0.00589661
 


--------------------------------------------------------------------------------------------------------


 k-point  1 :  0.00000.00000.0000  plane waves:  33031
 k-point  2 :  0.00000.00000.1429  plane waves:  32951
 k-point  3 :  0.00000.00000.2857  plane waves:  32693
 k-point  4 :  0.00000.00000.4286  plane waves:  32301

 maximum and minimum number of plane-waves per node :  33031 32301

 maximum number of plane-waves:  33031
 maximal index in each direction: 
   IXMAX= 46   IYMAX= 48   IZMAX=  3
   IXMIN=-46   IYMIN=-48   IZMIN= -3

 WARNING: wrap around error must be expected set NGX to 186
 WARNING: wrap around error must be expected set NGY to 194
 WARNING: wrap around error must be expected set NGZ to  14

 real space projection operators:
  total allocation   :  11261.81 KBytes
  max/ min on nodes  :  11261.81  11261.81


 parallel 3dFFT wavefunction:
    minimum data exchange during FFTs selected (reduces bandwidth)
 parallel 3dFFT charge:
    minimum data exchange during FFTs selected (reduces bandwidth)

 For storing wavefunctions 2778.79 MBYTES are necessary
 For predicting wavefunctions 1486.10 MBYTES are necessary
Broyden mixing: mesh for mixing (old mesh)
   NGX = 93   NGY = 97   NGZ =  7
  (NGX  =250   NGY  =252   NGZ  = 18)
 gives a total of  63147 points
 initial charge density was supplied:
 number of electron  832.0008352 magnetization  251.3143246
 keeping initial charge density in first step


--------------------------------------------------------------------------------------------------------


 Maximum index for non-local projection operator          780
 Maximum index for augmentation-charges          178 (set IRDMAX)


--------------------------------------------------------------------------------------------------------


 First call to EWALD:  gamma=   0.126
 Maximum number of real-space cells 1x 1x13
 Maximum number of reciprocal cells 6x 6x 1

    FEWALD:  VPU time    0.05: CPU time    0.05


----------------------------------------- Iteration    1(   1)  ---------------------------------------


    POTLOK:  VPU time    0.07: CPU time    0.07
    SETDIJ:  VPU time    0.02: CPU time    0.02
    EDDAV :  VPU time   79.10: CPU time   79.11
    DOS   :  VPU time    0.00: CPU time    0.00
    CHARGE:  VPU time    0.86: CPU time    0.86
    MIXING:  VPU time    0.00: CPU time    0.00
    ------------------------------------------
      LOOP:  VPU time   80.09: CPU time   80.10

 eigenvalue-minimisations  : 10686
 total energy-change (2. order) :-0.8330746E+03  (-0.3777007E+00)
 number of electron  832.0008684 magnetization  251.8562368
 augmentation part   434.2607930 magnetization  201.8195169

 Broyden mixing:
  rms(total) = 0.27627E+00    rms(broyden)= 0.27428E+00
  rms(prec ) = 0.30402E+00
  weight for this iteration     100.00

 Free energy of the ion-electron system (eV)
  ---------------------------------------------------
  alpha Z        PSCENC =      2696.55311657
  Ewald energy   TEWEN  =    553446.52237633
  -1/2 Hartree   DENC   =   -616571.16404897
  -V(xc)+E(xc)   XCENC  =       442.45209643
  PAW double counting   =     52983.93378761   -53926.61027737
  entropy T*S    EENTRO =        -0.10186430
  eigenvalues    EBANDS =     -1726.61101187
  atomic energy  EATOM  =     61821.95119671
  ---------------------------------------------------
  free energy    TOTEN  =      -833.07462887 eV

  energy without entropy =     -832.97276457  energy(sigma->0) =     -833.04916279


--------------------------------------------------------------------------------------------------------




----------------------------------------- Iteration    1(   2)  ---------------------------------------


    POTLOK:  VPU time    0.07: CPU time    0.07
    SETDIJ:  VPU time    0.03: CPU time    0.03
    EDDIAG:  VPU time   24.18: CPU time   24.19
  RMM-DIIS:  VPU time    7.68: CPU time    7.68
    ORTHCH:  VPU time   10.50: CPU time   10.50
    DOS   :  VPU time    0.00: CPU time    0.00
    CHARGE:  VPU time    0.87: CPU time    0.87
    MIXING:  VPU time    0.00: CPU time    0.00
    ------------------------------------------
      LOOP:  VPU time   43.36: CPU time   43.37

 eigenvalue-minimisations  : 11321
 total energy-change (2. order) :-0.5204210E+01  (-0.5624349E-01)
 number of electron  832.0008632 magnetization  251.6787871
 augmentation part   431.5302751 magnetization  206.3287450

 Broyden mixing:
  rms(total) = 0.22061E+01    rms(broyden)= 0.22040E+01
  rms(prec ) = 0.32394E+01
  weight for this iteration     100.00

 eigenvalues of (default mixing * dielectric matrix)
  average eigenvalue GAMMA=   0.0961
  0.0961

 Free energy of the ion-electron system (eV)
  ---------------------------------------------------
  alpha Z        PSCENC =      2696.55311657
  Ewald energy   TEWEN  =    553446.52237633
  -1/2 Hartree   DENC   =   -616726.43324295
  -V(xc)+E(xc)   XCENC  =       443.11665195
  PAW double counting   =     52985.74755674   -53927.93392949
  entropy T*S    EENTRO =         0.10172027
  eigenvalues    EBANDS =     -1577.90428521
  atomic energy  EATOM  =     61821.95119671
  ---------------------------------------------------
  free energy    TOTEN  =      -838.27883909 eV

  energy without entropy =     -838.38055935  energy(sigma->0) =     -838.30426915


--------------------------------------------------------------------------------------------------------




----------------------------------------- Iteration    1(   3)  ---------------------------------------


    POTLOK:  VPU time    0.27: CPU time    0.27
    SETDIJ:  VPU time    0.03: CPU time    0.03
    EDDIAG:  VPU time   24.26: CPU time   24.26
  RMM-DIIS:  VPU time    7.66: CPU time    7.67
    ORTHCH:  VPU time   10.51: CPU time   10.51
    DOS   :  VPU time    0.00: CPU time    0.00
    CHARGE:  VPU time    0.88: CPU time    0.88
    MIXING:  VPU time    0.00: CPU time    0.00
    ------------------------------------------
      LOOP:  VPU time   43.65: CPU time   43.66

 eigenvalue-minimisations  : 11179
 total energy-change (2. order) : 0.3997459E+01  (-0.3426876E-01)
 number of electron  832.0008663 magnetization  251.6370987
 augmentation part   434.0393795 magnetization  201.5525826

 Broyden mixing:
  rms(total) = 0.67643E+00    rms(broyden)= 0.67044E+00
  rms(prec ) = 0.10261E+01
  weight for this iteration     100.00

 eigenvalues of (default mixing * dielectric matrix)
  average eigenvalue GAMMA=   0.1998
  0.0494  0.3501

 Free energy of the ion-electron system (eV)
  ---------------------------------------------------
  alpha Z        PSCENC =      2696.55311657
  Ewald energy   TEWEN  =    553446.52237633
  -1/2 Hartree   DENC   =   -616549.01149912
  -V(xc)+E(xc)   XCENC  =       442.92656807
  PAW double counting   =     52984.65801362   -53926.30078046
  entropy T*S    EENTRO =        -0.10223713
  eigenvalues    EBANDS =     -1751.47813500
  atomic energy  EATOM  =     61821.95119671
  ---------------------------------------------------
  free energy    TOTEN  =      -834.28138042 eV

  energy without entropy =     -834.17914329  energy(sigma->0) =     -834.25582113


--------------------------------------------------------------------------------------------------------




----------------------------------------- Iteration    1(   4)  ---------------------------------------


    POTLOK:  VPU time    0.07: CPU time    0.07
    SETDIJ:  VPU time    0.03: CPU time    0.03
    EDDIAG:  VPU time   24.15: CPU time   24.15
  RMM-DIIS:  VPU time    7.63: CPU time    7.64
    ORTHCH:  VPU time   10.50: CPU time   10.50
    DOS   :  VPU time    0.00: CPU time    0.00
    CHARGE:  VPU time    0.86: CPU time    0.86
    MIXING:  VPU time    0.00: CPU time    0.00
    ------------------------------------------
      LOOP:  VPU time   43.28: CPU time   43.29

 eigenvalue-minimisations  : 11138
 total energy-change (2. order) :-0.8008916E+00  (-0.6551214E-02)
 number of electron  832.0008642 magnetization  251.6000658
 augmentation part   433.8647728 magnetization  201.9376579

 Broyden mixing:
  rms(total) = 0.11184E+01    rms(broyden)= 0.11168E+01
  rms(prec ) = 0.18981E+01
  weight for this iteration     100.00

 eigenvalues of (default mixing * dielectric matrix)
  average eigenvalue GAMMA=   0.1821
  0.4602  0.0510  0.0351

 Free energy of the ion-electron system (eV)
  ---------------------------------------------------
  alpha Z        PSCENC =      2696.55311657
  Ewald energy   TEWEN  =    553446.52237633
  -1/2 Hartree   DENC   =   -616541.05919907
  -V(xc)+E(xc)   XCENC  =       442.81579208
  PAW double counting   =     52984.56629278   -53926.40917058
  entropy T*S    EENTRO =        -0.02986530
  eigenvalues    EBANDS =     -1759.99281157
  atomic energy  EATOM  =     61821.95119671
  ---------------------------------------------------
  free energy    TOTEN  =      -835.08227205 eV

  energy without entropy =     -835.05240676  energy(sigma->0) =     -835.07480573


--------------------------------------------------------------------------------------------------------




----------------------------------------- Iteration    1(   5)  ---------------------------------------


    POTLOK:  VPU time    0.07: CPU time    0.07
    SETDIJ:  VPU time    0.03: CPU time    0.03
    EDDIAG:  VPU time   24.23: CPU time   24.23
  RMM-DIIS:  VPU time    7.53: CPU time    7.53
    ORTHCH:  VPU time   10.51: CPU time   10.51
    DOS   :  VPU time    0.00: CPU time    0.00
    CHARGE:  VPU time    0.84: CPU time    0.84
    MIXING:  VPU time    0.00: CPU time    0.00
    ------------------------------------------
      LOOP:  VPU time   43.23: CPU time   43.28

 eigenvalue-minimisations  : 11011
 total energy-change (2. order) : 0.1073983E+01  (-0.4171858E-02)
 number of electron  832.0008662 magnetization  251.5901172
 augmentation part   433.9610165 magnetization  201.7287745

 Broyden mixing:
  rms(total) = 0.35281E+00    rms(broyden)= 0.34940E+00
  rms(prec ) = 0.46769E+00
  weight for this iteration     100.00

 eigenvalues of (default mixing * dielectric matrix)
  average eigenvalue GAMMA=   0.2533
  0.7580  0.0307  0.0533  0.1713

 Free energy of the ion-electron system (eV)
  ---------------------------------------------------
  alpha Z        PSCENC =      2696.55311657
  Ewald energy   TEWEN  =    553446.52237633
  -1/2 Hartree   DENC   =   -616551.45351374
  -V(xc)+E(xc)   XCENC  =       442.77706108
  PAW double counting   =     52984.43191374   -53926.23225836
  entropy T*S    EENTRO =        -0.09116725
  eigenvalues    EBANDS =     -1748.46701450
  atomic energy  EATOM  =     61821.95119671
  ---------------------------------------------------
  free energy    TOTEN  =      -834.00828942 eV

  energy without entropy =     -833.91712217  energy(sigma->0) =     -833.98549761


--------------------------------------------------------------------------------------------------------




----------------------------------------- Iteration    1(   6)  ---------------------------------------


    POTLOK:  VPU time    0.07: CPU time    0.07
    SETDIJ:  VPU time    0.03: CPU time    0.03
    EDDIAG:  VPU time   24.28: CPU time   24.28
  RMM-DIIS:  VPU time    7.58: CPU time    7.58
    ORTHCH:  VPU time   10.51: CPU time   10.51
    DOS   :  VPU time    0.00: CPU time    0.00
    CHARGE:  VPU time    0.84: CPU time    0.84
    MIXING:  VPU time    0.00: CPU time    0.00
    ------------------------------------------
      LOOP:  VPU time   43.33: CPU time   43.34

 eigenvalue-minimisations  : 11013
 total energy-change (2. order) :-0.1656624E+00  (-0.2868614E-02)
 number of electron  832.0008656 magnetization  251.5845101
 augmentation part   433.6332238 magnetization  202.3143345

 Broyden mixing:
  rms(total) = 0.53386E+00    rms(broyden)= 0.53306E+00
  rms(prec ) = 0.82211E+00
  weight for this iteration     100.00

 eigenvalues of (default mixing * dielectric matrix)
  average eigenvalue GAMMA=   0.2289
  0.8041  0.2029  0.0308  0.0534  0.0534

 Free energy of the ion-electron system (eV)
  ---------------------------------------------------
  alpha Z        PSCENC =      2696.55311657
  Ewald energy   TEWEN  =    553446.52237633
  -1/2 Hartree   DENC   =   -616568.65296864
  -V(xc)+E(xc)   XCENC  =       442.75021372
  PAW double counting   =     52984.52133942   -53926.33568852
  entropy T*S    EENTRO =        -0.08518734
  eigenvalues    EBANDS =     -1731.39835012
  atomic energy  EATOM  =     61821.95119671
  ---------------------------------------------------
  free energy    TOTEN  =      -834.17395187 eV

  energy without entropy =     -834.08876453  energy(sigma->0) =     -834.15265504


--------------------------------------------------------------------------------------------------------




----------------------------------------- Iteration    1(   7)  ---------------------------------------


    POTLOK:  VPU time    0.07: CPU time    0.07
    SETDIJ:  VPU time    0.03: CPU time    0.03
    EDDIAG:  VPU time   24.20: CPU time   24.21
  RMM-DIIS:  VPU time    7.48: CPU time    7.48
    ORTHCH:  VPU time   10.50: CPU time   10.50
    DOS   :  VPU time    0.00: CPU time    0.00
    CHARGE:  VPU time    0.84: CPU time    0.84
    MIXING:  VPU time    0.00: CPU time    0.00
    ------------------------------------------
      LOOP:  VPU time   43.15: CPU time   43.20

 eigenvalue-minimisations  : 10905
 total energy-change (2. order) : 0.1614958E+00  (-0.1229909E-02)
 number of electron  832.0008658 magnetization  251.5794270
 augmentation part   433.6018771 magnetization  202.3696900

 Broyden mixing:
  rms(total) = 0.35923E+00    rms(broyden)= 0.35800E+00
  rms(prec ) = 0.57527E+00
  weight for this iteration     100.00

 eigenvalues of (default mixing * dielectric matrix)
  average eigenvalue GAMMA=   0.2119
  0.8121  0.2487  0.0899  0.0535  0.0307  0.0362

 Free energy of the ion-electron system (eV)
  ---------------------------------------------------
  alpha Z        PSCENC =      2696.55311657
  Ewald energy   TEWEN  =    553446.52237633
  -1/2 Hartree   DENC   =   -616573.79939152
  -V(xc)+E(xc)   XCENC  =       442.74822931
  PAW double counting   =     52984.51844098   -53926.29282225
  entropy T*S    EENTRO =        -0.11245949
  eigenvalues    EBANDS =     -1726.10114271
  atomic energy  EATOM  =     61821.95119671
  ---------------------------------------------------
  free energy    TOTEN  =      -834.01245605 eV

  energy without entropy =     -833.89999657  energy(sigma->0) =     -833.98434118


--------------------------------------------------------------------------------------------------------




----------------------------------------- Iteration    1(   8)  ---------------------------------------


    POTLOK:  VPU time    0.07: CPU time    0.07
    SETDIJ:  VPU time    0.02: CPU time    0.03
    EDDIAG:  VPU time   24.23: CPU time   24.23
  RMM-DIIS:  VPU time    7.46: CPU time    7.46
    ORTHCH:  VPU time   10.50: CPU time   10.50
    DOS   :  VPU time    0.00: CPU time    0.00
    CHARGE:  VPU time    0.83: CPU time    0.83
    MIXING:  VPU time    0.00: CPU time    0.00
    ------------------------------------------
      LOOP:  VPU time   43.14: CPU time   43.15

 eigenvalue-minimisations  : 10837
 total energy-change (2. order) : 0.5741063E-01  (-0.6520292E-03)
 number of electron  832.0008661 magnetization  251.5551196
 augmentation part   433.5816526 magnetization  202.3857300

 Broyden mixing:
  rms(total) = 0.22089E+00    rms(broyden)= 0.21998E+00
  rms(prec ) = 0.31925E+00
  weight for this iteration     100.00

 eigenvalues of (default mixing * dielectric matrix)
  average eigenvalue GAMMA=   0.2575
  0.7367  0.7367  0.1553  0.0609  0.0530  0.0311  0.0286

 Free energy of the ion-electron system (eV)
  ---------------------------------------------------
  alpha Z        PSCENC =      2696.55311657
  Ewald energy   TEWEN  =    553446.52237633
  -1/2 Hartree   DENC   =   -616575.96669995
  -V(xc)+E(xc)   XCENC  =       442.73922704
  PAW double counting   =     52984.50620602   -53926.27487674
  entropy T*S    EENTRO =        -0.12478066
  eigenvalues    EBANDS =     -1723.86081072
  atomic energy  EATOM  =     61821.95119671
  ---------------------------------------------------
  free energy    TOTEN  =      -833.95504542 eV

  energy without entropy =     -833.83026476  energy(sigma->0) =     -833.92385026


--------------------------------------------------------------------------------------------------------




----------------------------------------- Iteration    1(   9)  ---------------------------------------


    POTLOK:  VPU time    0.07: CPU time    0.07
    SETDIJ:  VPU time    0.03: CPU time    0.03
    EDDIAG:  VPU time   24.18: CPU time   24.18
  RMM-DIIS:  VPU time    7.41: CPU time    7.41
    ORTHCH:  VPU time   10.49: CPU time   10.50
    DOS   :  VPU time    0.00: CPU time    0.00
    CHARGE:  VPU time    0.84: CPU time    0.84
    MIXING:  VPU time    0.00: CPU time    0.00
    ------------------------------------------
      LOOP:  VPU time   43.04: CPU time   43.05

 eigenvalue-minimisations  : 10808
 total energy-change (2. order) : 0.9562245E-02  (-0.5138466E-03)
 number of electron  832.0008662 magnetization  251.5281370
 augmentation part   433.5892273 magnetization  202.3423845

 Broyden mixing:
  rms(total) = 0.16403E+00    rms(broyden)= 0.16371E+00
  rms(prec ) = 0.20683E+00
  weight for this iteration     100.00

 eigenvalues of (default mixing * dielectric matrix)
  average eigenvalue GAMMA=   0.3035
  0.9711  0.9711  0.1801  0.1348  0.0582  0.0534  0.0310  0.0285

 Free energy of the ion-electron system (eV)
  ---------------------------------------------------
  alpha Z        PSCENC =      2696.55311657
  Ewald energy   TEWEN  =    553446.52237633
  -1/2 Hartree   DENC   =   -616576.44256033
  -V(xc)+E(xc)   XCENC  =       442.70933352
  PAW double counting   =     52984.38683839   -53926.13390891
  entropy T*S    EENTRO =        -0.11992825
  eigenvalues    EBANDS =     -1723.37194720
  atomic energy  EATOM  =     61821.95119671
  ---------------------------------------------------
  free energy    TOTEN  =      -833.94548318 eV

  energy without entropy =     -833.82555492  energy(sigma->0) =     -833.91550111


--------------------------------------------------------------------------------------------------------




----------------------------------------- Iteration    1(  10)  ---------------------------------------


    POTLOK:  VPU time    0.07: CPU time    0.07
    SETDIJ:  VPU time    0.03: CPU time    0.03
    EDDIAG:  VPU time   24.17: CPU time   24.17
  RMM-DIIS:  VPU time    7.39: CPU time    7.39
    ORTHCH:  VPU time   10.50: CPU time   10.50
    DOS   :  VPU time    0.00: CPU time    0.00
    CHARGE:  VPU time    0.84: CPU time    0.84
    MIXING:  VPU time    0.00: CPU time    0.00
    ------------------------------------------
      LOOP:  VPU time   43.03: CPU time   43.04

 eigenvalue-minimisations  : 10816
 total energy-change (2. order) :-0.2226426E-04  (-0.3897238E-03)
 number of electron  832.0008661 magnetization  251.5106815
 augmentation part   433.6340497 magnetization  202.2790976

 Broyden mixing:
  rms(total) = 0.15940E+00    rms(broyden)= 0.15914E+00
  rms(prec ) = 0.21797E+00
  weight for this iteration     100.00

 eigenvalues of (default mixing * dielectric matrix)
  average eigenvalue GAMMA=   0.3220
  1.1109  1.1109  0.2617  0.1528  0.0906  0.0580  0.0532  0.0310  0.0285

 Free energy of the ion-electron system (eV)
  ---------------------------------------------------
  alpha Z        PSCENC =      2696.55311657
  Ewald energy   TEWEN  =    553446.52237633
  -1/2 Hartree   DENC   =   -616574.37073427
  -V(xc)+E(xc)   XCENC  =       442.67670541
  PAW double counting   =     52984.22967989   -53925.95407791
  entropy T*S    EENTRO =        -0.12671227
  eigenvalues    EBANDS =     -1725.42705590
  atomic energy  EATOM  =     61821.95119671
  ---------------------------------------------------
  free energy    TOTEN  =      -833.94550544 eV

  energy without entropy =     -833.81879317  energy(sigma->0) =     -833.91382737


--------------------------------------------------------------------------------------------------------




----------------------------------------- Iteration    1(  11)  ---------------------------------------


    POTLOK:  VPU time    0.07: CPU time    0.07
    SETDIJ:  VPU time    0.02: CPU time    0.03
    EDDIAG:  VPU time   24.17: CPU time   24.18
  RMM-DIIS:  VPU time    7.45: CPU time    7.45
    ORTHCH:  VPU time   10.51: CPU time   10.51
    DOS   :  VPU time    0.00: CPU time    0.00
    CHARGE:  VPU time    0.83: CPU time    0.83
    MIXING:  VPU time    0.00: CPU time    0.00
    ------------------------------------------
      LOOP:  VPU time   43.09: CPU time   43.10

 eigenvalue-minimisations  : 10863
 total energy-change (2. order) :-0.1740803E-01  (-0.3347569E-03)
 number of electron  832.0008660 magnetization  251.4870480
 augmentation part   433.6235348 magnetization  202.2586109

 Broyden mixing:
  rms(total) = 0.20901E+00    rms(broyden)= 0.20866E+00
  rms(prec ) = 0.30311E+00
  weight for this iteration     100.00

 eigenvalues of (default mixing * dielectric matrix)
  average eigenvalue GAMMA=   0.3495
  1.6068  1.0024  0.3897  0.1600  0.1135  0.0310  0.0285  0.0583  0.0524  0.0524

 Free energy of the ion-electron system (eV)
  ---------------------------------------------------
  alpha Z        PSCENC =      2696.55311657
  Ewald energy   TEWEN  =    553446.52237633
  -1/2 Hartree   DENC   =   -616574.75882470
  -V(xc)+E(xc)   XCENC  =       442.65528547
  PAW double counting   =     52984.13268603   -53925.84601114
  entropy T*S    EENTRO =        -0.10681509
  eigenvalues    EBANDS =     -1725.06592365
  atomic energy  EATOM  =     61821.95119671
  ---------------------------------------------------
  free energy    TOTEN  =      -833.96291347 eV

  energy without entropy =     -833.85609838  energy(sigma->0) =     -833.93620970


--------------------------------------------------------------------------------------------------------




----------------------------------------- Iteration    1(  12)  ---------------------------------------


    POTLOK:  VPU time    0.07: CPU time    0.07
    SETDIJ:  VPU time    0.03: CPU time    0.03
    EDDIAG:  VPU time   24.21: CPU time   24.22
  RMM-DIIS:  VPU time    7.34: CPU time    7.34
    ORTHCH:  VPU time   10.52: CPU time   10.52
    DOS   :  VPU time    0.00: CPU time    0.00
    CHARGE:  VPU time    0.85: CPU time    0.85
    MIXING:  VPU time    0.00: CPU time    0.00
    ------------------------------------------
      LOOP:  VPU time   43.05: CPU time   43.06

 eigenvalue-minimisations  : 10719
 total energy-change (2. order) : 0.2650277E-01  (-0.2984284E-03)
 number of electron  832.0008660 magnetization  251.4533424
 augmentation part   433.6395328 magnetization  202.2419856

 Broyden mixing:
  rms(total) = 0.11162E+00    rms(broyden)= 0.11128E+00
  rms(prec ) = 0.14288E+00
  weight for this iteration     100.00

 eigenvalues of (default mixing * dielectric matrix)
  average eigenvalue GAMMA=   0.4230
  2.4055  0.9816  0.5733  0.2077  0.1595  0.1056  0.0310  0.0285  0.0584  0.0533
  0.0483

 Free energy of the ion-electron system (eV)
  ---------------------------------------------------
  alpha Z        PSCENC =      2696.55311657
  Ewald energy   TEWEN  =    553446.52237633
  -1/2 Hartree   DENC   =   -616574.24886231
  -V(xc)+E(xc)   XCENC  =       442.62839793
  PAW double counting   =     52983.98986738   -53925.68216602
  entropy T*S    EENTRO =        -0.12441671
  eigenvalues    EBANDS =     -1725.52592057
  atomic energy  EATOM  =     61821.95119671
  ---------------------------------------------------
  free energy    TOTEN  =      -833.93641070 eV

  energy without entropy =     -833.81199399  energy(sigma->0) =     -833.90530652


--------------------------------------------------------------------------------------------------------




----------------------------------------- Iteration    1(  13)  ---------------------------------------


    POTLOK:  VPU time    0.07: CPU time    0.07
    SETDIJ:  VPU time    0.03: CPU time    0.03
    EDDIAG:  VPU time   24.25: CPU time   24.26
  RMM-DIIS:  VPU time    7.34: CPU time    7.34
    ORTHCH:  VPU time   10.51: CPU time   10.51
    DOS   :  VPU time    0.00: CPU time    0.00
    CHARGE:  VPU time    0.87: CPU time    0.87
    MIXING:  VPU time    0.00: CPU time    0.00
    ------------------------------------------
      LOOP:  VPU time   43.10: CPU time   43.10

 eigenvalue-minimisations  : 10730
 total energy-change (2. order) :-0.5769112E-02  (-0.2507880E-03)
 number of electron  832.0008664 magnetization  251.3958216
 augmentation part   433.6537271 magnetization  202.1686858

 Broyden mixing:
  rms(total) = 0.12226E+00    rms(broyden)= 0.12214E+00
  rms(prec ) = 0.15789E+00
  weight for this iteration     100.00

 eigenvalues of (default mixing * dielectric matrix)
  average eigenvalue GAMMA=   0.5226
  3.6308  1.0203  0.7159  0.2968  0.1641  0.1258  0.0991  0.0310  0.0285  0.0583
  0.0532  0.0481

 Free energy of the ion-electron system (eV)
  ---------------------------------------------------
  alpha Z        PSCENC =      2696.55311657
  Ewald energy   TEWEN  =    553446.52237633
  -1/2 Hartree   DENC   =   -616573.52779125
  -V(xc)+E(xc)   XCENC  =       442.58929895
  PAW double counting   =     52983.81685726   -53925.48400464
  entropy T*S    EENTRO =        -0.11866698
  eigenvalues    EBANDS =     -1726.24456276
  atomic energy  EATOM  =     61821.95119671
  ---------------------------------------------------
  free energy    TOTEN  =      -833.94217981 eV

  energy without entropy =     -833.82351283  energy(sigma->0) =     -833.91251307


--------------------------------------------------------------------------------------------------------




----------------------------------------- Iteration    1(  14)  ---------------------------------------


    POTLOK:  VPU time    0.07: CPU time    0.07
    SETDIJ:  VPU time    0.03: CPU time    0.03
    EDDIAG:  VPU time   24.22: CPU time   24.22
  RMM-DIIS:  VPU time    7.38: CPU time    7.38
    ORTHCH:  VPU time   10.51: CPU time   10.51
    DOS   :  VPU time    0.00: CPU time    0.00
    CHARGE:  VPU time    0.84: CPU time    0.84
    MIXING:  VPU time    0.00: CPU time    0.00
    ------------------------------------------
      LOOP:  VPU time   43.07: CPU time   43.08

 eigenvalue-minimisations  : 10837
 total energy-change (2. order) : 0.8101401E-03  (-0.2803078E-03)
 number of electron  832.0008664 magnetization  251.3540866
 augmentation part   433.6967517 magnetization  202.0670472

 Broyden mixing:
  rms(total) = 0.11022E+00    rms(broyden)= 0.11007E+00
  rms(prec ) = 0.13776E+00
  weight for this iteration     100.00

 eigenvalues of (default mixing * dielectric matrix)
  average eigenvalue GAMMA=   0.5678
  4.4076  1.0709  0.7774  0.3568  0.1864  0.1523  0.1146  0.0963  0.0310  0.0285
  0.0583  0.0532  0.0481

 Free energy of the ion-electron system (eV)
  ---------------------------------------------------
  alpha Z        PSCENC =      2696.55311657
  Ewald energy   TEWEN  =    553446.52237633
  -1/2 Hartree   DENC   =   -616572.28152276
  -V(xc)+E(xc)   XCENC  =       442.52687128
  PAW double counting   =     52983.55747839   -53925.18596222
  entropy T*S    EENTRO =        -0.11895496
  eigenvalues    EBANDS =     -1727.46596902
  atomic energy  EATOM  =     61821.95119671
  ---------------------------------------------------
  free energy    TOTEN  =      -833.94136967 eV

  energy without entropy =     -833.82241471  energy(sigma->0) =     -833.91163093


--------------------------------------------------------------------------------------------------------




----------------------------------------- Iteration    1(  15)  ---------------------------------------


    POTLOK:  VPU time    0.07: CPU time    0.07
    SETDIJ:  VPU time    0.03: CPU time    0.03
    EDDIAG:  VPU time   24.07: CPU time   24.08
  RMM-DIIS:  VPU time    7.33: CPU time    7.33
    ORTHCH:  VPU time   10.50: CPU time   10.50
    DOS   :  VPU time    0.00: CPU time    0.00
    CHARGE:  VPU time    0.88: CPU time    0.88
    MIXING:  VPU time    0.00: CPU time    0.00
    ------------------------------------------
      LOOP:  VPU time   42.91: CPU time   42.92

 eigenvalue-minimisations  : 10742
 total energy-change (2. order) : 0.5111999E-02  (-0.2211138E-03)
 number of electron  832.0008661 magnetization  251.3142573
 augmentation part   433.7100628 magnetization  202.0202711

 Broyden mixing:
  rms(total) = 0.69397E-01    rms(broyden)= 0.69205E-01
  rms(prec ) = 0.84942E-01
  weight for this iteration     100.00

 eigenvalues of (default mixing * dielectric matrix)
  average eigenvalue GAMMA=   0.6021
  5.0610  1.0993  0.8020  0.4747  0.2652  0.1631  0.1431  0.1081  0.0942  0.0310
  0.0285  0.0583  0.0532  0.0481

 Free energy of the ion-electron system (eV)
  ---------------------------------------------------
  alpha Z        PSCENC =      2696.55311657
  Ewald energy   TEWEN  =    553446.52237633
  -1/2 Hartree   DENC   =   -616572.56816852
  -V(xc)+E(xc)   XCENC  =       442.48264203
  PAW double counting   =     52983.39738770   -53925.00493965
  entropy T*S    EENTRO =        -0.12250054
  eigenvalues    EBANDS =     -1727.14736830
  atomic energy  EATOM  =     61821.95119671
  ---------------------------------------------------
  free energy    TOTEN  =      -833.93625767 eV

  energy without entropy =     -833.81375713  energy(sigma->0) =     -833.90563254


--------------------------------------------------------------------------------------------------------




----------------------------------------- Iteration    1(  16)  ---------------------------------------


    POTLOK:  VPU time    0.07: CPU time    0.07
    SETDIJ:  VPU time    0.03: CPU time    0.03
    EDDIAG:  VPU time   24.04: CPU time   24.04
  RMM-DIIS:  VPU time    7.25: CPU time    7.25
    ORTHCH:  VPU time   10.50: CPU time   10.50
    DOS   :  VPU time    0.00: CPU time    0.00
    CHARGE:  VPU time    0.87: CPU time    0.87
    MIXING:  VPU time    0.00: CPU time    0.00
    ------------------------------------------
      LOOP:  VPU time   42.79: CPU time   42.80

 eigenvalue-minimisations  : 10632
 total energy-change (2. order) : 0.1648457E-02  (-0.1141422E-03)
 number of electron  832.0008664 magnetization  251.3037704
 augmentation part   433.7336270 magnetization  201.9759816

 Broyden mixing:
  rms(total) = 0.45720E-01    rms(broyden)= 0.45624E-01
  rms(prec ) = 0.60896E-01
  weight for this iteration     100.00

 eigenvalues of (default mixing * dielectric matrix)
  average eigenvalue GAMMA=   0.5915
  5.1983  1.0969  0.7459  0.5944  0.3012  0.2172  0.1595  0.1382  0.1085  0.0940
  0.0310  0.0285  0.0583  0.0532  0.0481

 Free energy of the ion-electron system (eV)
  ---------------------------------------------------
  alpha Z        PSCENC =      2696.55311657
  Ewald energy   TEWEN  =    553446.52237633
  -1/2 Hartree   DENC   =   -616571.48509351
  -V(xc)+E(xc)   XCENC  =       442.44106306
  PAW double counting   =     52983.26068882   -53924.84947325
  entropy T*S    EENTRO =        -0.12344082
  eigenvalues    EBANDS =     -1728.20504313
  atomic energy  EATOM  =     61821.95119671
  ---------------------------------------------------
  free energy    TOTEN  =      -833.93460922 eV

  energy without entropy =     -833.81116840  energy(sigma->0) =     -833.90374901


--------------------------------------------------------------------------------------------------------




----------------------------------------- Iteration    1(  17)  ---------------------------------------


    POTLOK:  VPU time    0.07: CPU time    0.07
    SETDIJ:  VPU time    0.03: CPU time    0.03
    EDDIAG:  VPU time   24.02: CPU time   24.02
  RMM-DIIS:  VPU time    6.18: CPU time    6.18
    ORTHCH:  VPU time   10.50: CPU time   10.50
    DOS   :  VPU time    0.00: CPU time    0.00
    ------------------------------------------
      LOOP:  VPU time   40.82: CPU time   40.83

 eigenvalue-minimisations  :  8586
 total energy-change (2. order) : 0.6259696E-04  (-0.3278461E-04)
 number of electron  832.0008664 magnetization  251.3037704
 augmentation part   433.7336270 magnetization  201.9759816

 Free energy of the ion-electron system (eV)
  ---------------------------------------------------
  alpha Z        PSCENC =      2696.55311657
  Ewald energy   TEWEN  =    553446.52237633
  -1/2 Hartree   DENC   =   -616570.92096936
  -V(xc)+E(xc)   XCENC  =       442.42999458
  PAW double counting   =     52983.24204258   -53924.83066903
  entropy T*S    EENTRO =        -0.12434662
  eigenvalues    EBANDS =     -1728.75728837
  atomic energy  EATOM  =     61821.95119671
  ---------------------------------------------------
  free energy    TOTEN  =      -833.93454662 eV

  energy without entropy =     -833.81020000  energy(sigma->0) =     -833.90345996


--------------------------------------------------------------------------------------------------------




 average (electrostatic) potential at core
  the test charge radii are     1.0103
  (the norm of the test charge is              1.0000)
       1 -48.9789       2 -48.9225       3 -48.9682       4 -48.9610       5 -48.9285
       6 -49.0781       7 -48.9248       8 -48.9506       9 -48.9172      10 -49.0763
      11 -48.9653      12 -48.9477      13 -48.9805      14 -48.9589      15 -49.0924
      16 -48.9282      17 -49.0007      18 -48.9425      19 -48.8943      20 -49.0787
      21 -48.9512      22 -49.0084      23 -48.9525      24 -48.9927      25 -48.9733
      26 -48.9287      27 -48.9590      28 -49.0260      29 -48.9918      30 -49.0103
      31 -49.0225      32 -48.9556      33 -48.9823      34 -49.0014      35 -48.9866
      36 -48.9847      37 -49.0181      38 -48.9509      39 -48.9512      40 -48.9264
      41 -48.9459      42 -48.9404      43 -48.9669      44 -48.9243      45 -48.9505
      46 -49.0965      47 -49.0045      48 -48.8964      49 -49.0844      50 -49.0900
      51 -48.9418      52 -48.8891      53 -48.9361      54 -48.9922      55 -48.9550
      56 -48.9259      57 -48.9564      58 -48.9697      59 -48.9917      60 -48.9473
      61 -48.9808      62 -49.0080      63 -48.9873      64 -49.0276      65 -49.0182
      66 -48.9947      67 -49.0327      68 -49.0302      69 -48.9543      70 -49.0235
      71 -48.9877      72 -48.9929      73 -49.0282      74 -49.0016      75 -48.9403
      76 -48.9660      77 -48.9356      78 -48.9451      79 -48.9757      80 -48.9248
      81 -48.8910      82 -48.9935      83 -48.9565      84 -49.0935      85 -49.0691
      86 -48.9674      87 -48.9483      88 -48.9561      89 -48.9198      90 -48.9146
      91 -48.9436      92 -48.9160      93 -49.0657      94 -48.9539      95 -48.9281
      96 -48.9420      97 -48.9544      98 -49.0651      99 -48.9528     100 -48.9119
     101 -48.9464     102 -48.9172     103 -48.9657     104 -49.0681
 
 
 
 E-fermi :   0.1194     XC(G=0):  -6.4183     alpha+bet : -5.8215
   add alpha+bet to get absolut eigen values

 spin component 1

 k-point   1 :       0.0000    0.0000    0.0000
  band No.  band energies     occupation 
      1      -8.1312      1.00000
      2      -7.9107      1.00000
      3      -7.9093      1.00000
      4      -7.6420      1.00000
      5      -7.6280      1.00000
      6      -7.5569      1.00000
      7      -7.3151      1.00000
      8      -7.3050      1.00000
      9      -7.1330      1.00000
     10      -7.1227      1.00000
     11      -6.9724      1.00000
     12      -6.9114      1.00000
     13      -6.6721      1.00000
     14      -6.6549      1.00000
     15      -6.6141      1.00000
     16      -6.5833      1.00000
     17      -6.4523      1.00000
     18      -6.1902      1.00000
     19      -6.1812      1.00000
     20      -6.1395      1.00000
     21      -6.0823      1.00000
     22      -6.0668      1.00000
     23      -6.0243      1.00000
     24      -5.7272      1.00000
     25      -5.7084      1.00000
     26      -5.6419      1.00000
     27      -5.6105      1.00000
     28      -5.5846      1.00000
     29      -5.5588      1.00000
     30      -5.4759      1.00000
     31      -5.3427      1.00000
     32      -5.2480      1.00000
     33      -5.2266      1.00000
     34      -5.2035      1.00000
     35      -5.1571      1.00000
     36      -5.1044      1.00000
     37      -5.0988      1.00000
     38      -5.0064      1.00000
     39      -4.9721      1.00000
     40      -4.9191      1.00000
     41      -4.8948      1.00000
     42      -4.8841      1.00000
     43      -4.8792      1.00000
     44      -4.8549      1.00000
     45      -4.7853      1.00000
     46      -4.7766      1.00000
     47      -4.7752      1.00000
     48      -4.7607      1.00000
     49      -4.7466      1.00000
     50      -4.7452      1.00000
     51      -4.7368      1.00000
     52      -4.7262      1.00000
     53      -4.7146      1.00000
     54      -4.7068      1.00000
     55      -4.6886      1.00000
     56      -4.6777      1.00000
     57      -4.6754      1.00000
     58      -4.6383      1.00000
     59      -4.6230      1.00000
     60      -4.6223      1.00000
     61      -4.5990      1.00000
     62      -4.5971      1.00000
     63      -4.5962      1.00000
     64      -4.5361      1.00000
     65      -4.5286      1.00000
     66      -4.5098      1.00000
     67      -4.4859      1.00000
     68      -4.4742      1.00000
     69      -4.4599      1.00000
     70      -4.4517      1.00000
     71      -4.4442      1.00000
     72      -4.4334      1.00000
     73      -4.3950      1.00000
     74      -4.3899      1.00000
     75      -4.3476      1.00000
     76      -4.3135      1.00000
     77      -4.3030      1.00000
     78      -4.2759      1.00000
     79      -4.2754      1.00000
     80      -4.2432      1.00000
     81      -4.2316      1.00000
     82      -4.2071      1.00000
     83      -4.1529      1.00000
     84      -4.1352      1.00000
     85      -4.1321      1.00000
     86      -4.1262      1.00000
     87      -4.0826      1.00000
     88      -4.0758      1.00000
     89      -4.0168      1.00000
     90      -3.9858      1.00000
     91      -3.9663      1.00000
     92      -3.9146      1.00000
     93      -3.8990      1.00000
     94      -3.8821      1.00000
     95      -3.8809      1.00000
     96      -3.8574      1.00000
     97      -3.8494      1.00000
     98      -3.8380      1.00000
     99      -3.7607      1.00000
    100      -3.7485      1.00000
    101      -3.7218      1.00000
    102      -3.7133      1.00000
    103      -3.6447      1.00000
    104      -3.6363      1.00000
    105      -3.2847      1.00000
    106      -3.2773      1.00000
    107      -3.2767      1.00000
    108      -3.2713      1.00000
    109      -3.2611      1.00000
    110      -3.2577      1.00000
    111      -3.2493      1.00000
    112      -3.2454      1.00000
    113      -3.2426      1.00000
    114      -3.2370      1.00000
    115      -3.2335      1.00000
    116      -3.2312      1.00000
    117      -3.2310      1.00000
    118      -3.2287      1.00000
    119      -3.2258      1.00000
    120      -3.2222      1.00000
    121      -3.2202      1.00000
    122      -3.2140      1.00000
    123      -3.2137      1.00000
    124      -3.2092      1.00000
    125      -3.2064      1.00000
    126      -3.2025      1.00000
    127      -3.2009      1.00000
    128      -3.1983      1.00000
    129      -3.1940      1.00000
    130      -3.1926      1.00000
    131      -3.1916      1.00000
    132      -3.1905      1.00000
    133      -3.1875      1.00000
    134      -3.1831      1.00000
    135      -3.1802      1.00000
    136      -3.1785      1.00000
    137      -3.1725      1.00000
    138      -3.1721      1.00000
    139      -3.1700      1.00000
    140      -3.1671      1.00000
    141      -3.1653      1.00000
    142      -3.1589      1.00000
    143      -3.1571      1.00000
    144      -3.1483      1.00000
    145      -3.1473      1.00000
    146      -3.1394      1.00000
    147      -3.1390      1.00000
    148      -3.1332      1.00000
    149      -3.1201      1.00000
    150      -3.1077      1.00000
    151      -3.1056      1.00000
    152      -3.1025      1.00000
    153      -3.0860      1.00000
    154      -3.0842      1.00000
    155      -3.0835      1.00000
    156      -3.0799      1.00000
    157      -3.0765      1.00000
    158      -3.0743      1.00000
    159      -3.0475      1.00000
    160      -3.0470      1.00000
    161      -3.0420      1.00000
    162      -3.0326      1.00000
    163      -3.0194      1.00000
    164      -2.9961      1.00000
    165      -2.9806      1.00000
    166      -2.9784      1.00000
    167      -2.9715      1.00000
    168      -2.9664      1.00000
    169      -2.9655      1.00000
    170      -2.9552      1.00000
    171      -2.9380      1.00000
    172      -2.9291      1.00000
    173      -2.9217      1.00000
    174      -2.9190      1.00000
    175      -2.9101      1.00000
    176      -2.8853      1.00000
    177      -2.8678      1.00000
    178      -2.8638      1.00000
    179      -2.8563      1.00000
    180      -2.8502      1.00000
    181      -2.8349      1.00000
    182      -2.8282      1.00000
    183      -2.8125      1.00000
    184      -2.8108      1.00000
    185      -2.8027      1.00000
    186      -2.7946      1.00000
    187      -2.7792      1.00000
    188      -2.7545      1.00000
    189      -2.7515      1.00000
    190      -2.7471      1.00000
    191      -2.7396      1.00000
    192      -2.7157      1.00000
    193      -2.7078      1.00000
    194      -2.7046      1.00000
    195      -2.7002      1.00000
    196      -2.6980      1.00000
    197      -2.6909      1.00000
    198      -2.6842      1.00000
    199      -2.6705      1.00000
    200      -2.6677      1.00000
    201      -2.6596      1.00000
    202      -2.6543      1.00000
    203      -2.6521      1.00000
    204      -2.6348      1.00000
    205      -2.6230      1.00000
    206      -2.6121      1.00000
    207      -2.6083      1.00000
    208      -2.6031      1.00000
    209      -2.5982      1.00000
    210      -2.5969      1.00000
    211      -2.5864      1.00000
    212      -2.5850      1.00000
    213      -2.5760      1.00000
    214      -2.5738      1.00000
    215      -2.5656      1.00000
    216      -2.5629      1.00000
    217      -2.5457      1.00000
[...]
   -.233E+04 -.133E+04 0.273E-01   0.233E+04 0.133E+04 -.325E-02   0.339E+00 0.190E+00 -.146E-01   0.122E+01 0.119E+01 0.219E-04
   -.279E+04 -.202E+04 0.266E-03   0.278E+04 0.202E+04 0.223E-01   0.267E+01 0.154E+01 -.281E-01   -.306E+00 0.205E+00 0.166E-02
   -.210E+04 -.187E+04 -.104E-01   0.210E+04 0.186E+04 -.127E-01   0.365E+00 0.255E+00 0.171E-01   0.135E+01 0.924E+00 -.697E-03
   -.257E+04 -.242E+04 0.135E+00   0.256E+04 0.242E+04 0.112E-01   0.245E+01 0.200E+01 -.164E+00   -.360E-01 -.173E+00 0.343E-02
   -.210E+04 -.281E+04 -.412E+01   0.210E+04 0.281E+04 0.450E+01   0.301E+01 0.502E+01 -.247E+00   0.449E+00 -.893E+00 -.886E-02
 -----------------------------------------------------------------------------------------------
   -.787E+02 -.119E+02 -.273E-01   0.227E-10 -.909E-12 -.165E-11   0.154E+00 -.727E-02 -.311E+00   0.784E+02 0.119E+02 -.906E-03
 
 
 POSITION                                       TOTAL-FORCE (eV/Angst)
 -----------------------------------------------------------------------------------
      8.46657      9.01432      0.82051         0.011550     -0.093144      0.019007
      8.47094     13.02345      0.82215        -0.048843     -0.087934     -0.003659
      6.15596     13.02464      0.00385        -0.100423      0.107243     -0.020816
      7.31141     11.01972      1.63940         0.035845     -0.023104     -0.000152
      8.47412     17.03217      0.82441         0.149866     -0.004265      0.026765
      5.00000     15.02912      0.82344         0.417099      0.062058      0.195033
      6.15881     17.03280      0.00594        -0.446276     -0.005807     -0.213390
      7.31538     15.02837      1.64199        -0.237908     -0.027517     -0.031774
      8.47118     21.04128      0.82175        -0.051204      0.086306     -0.004003
      5.00019     19.03703      0.82320         0.415805     -0.064000      0.194282
      6.15635     21.04111      0.00338        -0.102217     -0.106829     -0.021968
      7.31553     19.03668      1.64166        -0.241648      0.020649     -0.030287
      8.46709     25.05118      0.82022         0.013380      0.102104      0.019819
      7.31194     23.04578      1.63892         0.034382      0.028686      0.000804
     15.40652      5.00000      0.82270         0.270237      0.375002     -0.214690
     15.40915      9.01146      0.82380        -0.024018      0.127122     -0.023351
     11.93637      7.00685      0.82204        -0.039658     -0.165076     -0.058996
     13.09589      9.01153      0.00370         0.021531     -0.060542      0.028223
     14.25071      7.00550      1.64139        -0.109540     -0.272239      0.198593
      9.62170      7.00851      0.00252         0.223657      0.431012     -0.113999
     10.78128      9.01244      1.63998        -0.095079     -0.229808      0.017496
     15.41090     13.02523      0.82714         0.004076     -0.015004     -0.003754
     11.94066     11.01668      0.82205         0.111836      0.115034      0.004398
     13.09872     13.02225      0.00450        -0.000749      0.003859      0.021690
     14.25427     11.01759      1.64112         0.047152      0.050157     -0.003346
      9.62624     11.01807      0.00302        -0.137930      0.005721      0.017770
     10.78524     13.02199      1.64036         0.110465      0.017653      0.005075
     15.41091     17.03231      0.82834         0.010753     -0.006988     -0.004033
     11.94379     15.02666      0.82340         0.034298      0.017116     -0.010548
     13.10191     17.03170      0.01020         0.002316     -0.001881      0.000962
     14.25813     15.02812      1.64350         0.008927     -0.009157      0.000880
      9.63002     15.02731      0.00468         0.115181      0.022655      0.005081
     10.78847     17.03168      1.64302         0.017274      0.000135      0.004234
     15.41019     21.03834      0.82798         0.005196      0.016054      0.000509
     11.94336     19.03672      0.82365         0.041165     -0.007595     -0.015834
     13.09803     21.04126      0.00512         0.010883     -0.001835      0.018236
     14.25755     19.03560      1.64403         0.006235      0.002391      0.000270
      9.62996     19.03660      0.00452         0.112115     -0.031453      0.005164
     10.78505     21.04191      1.64048         0.107171     -0.021268      0.005411
     15.40858     25.05257      0.82501        -0.025889     -0.119817     -0.023662
     11.94052     23.04737      0.82263         0.111530     -0.113694     -0.001451
     13.09571     25.05275      0.00453         0.020851      0.072544      0.028131
     14.25373     23.04603      1.64220         0.046299     -0.044859     -0.002363
      9.62651     23.04666      0.00293        -0.138536      0.002324      0.017181
     10.78150     25.05244      1.64018        -0.099049      0.240527      0.018113
     15.40611     29.06524      0.82337         0.270996     -0.381029     -0.215956
     11.93645     27.05828      0.82237        -0.044727      0.163224     -0.059166
     14.25040     27.05921      1.64221        -0.107892      0.276469      0.199493
      9.62208     27.05712      0.00239         0.227033     -0.432000     -0.113752
     17.72142      5.00032      1.64058        -0.280518      0.367485      0.215737
     22.34873      9.01380      0.82699         0.086975     -0.205546     -0.019510
     18.87826      7.00628      0.82458         0.105607     -0.269464     -0.190997
     20.03403      9.01292      0.00983        -0.021345     -0.059648     -0.023729
     21.19246      7.00812      1.64302         0.040384     -0.169828      0.059059
     16.56452      7.00503      0.00552        -0.006594     -0.332984      0.003398
     17.72101      9.01199      1.64554         0.009329      0.145933      0.020839
     22.34764     13.02290      0.83143        -0.108502      0.042622     -0.009661
     18.87662     11.01918      0.83137        -0.048161      0.052306     -0.006507
     20.03374     13.02320      0.01410         0.005652      0.008247     -0.032815
     21.19054     11.01796      1.64859        -0.095729      0.142480     -0.027837
     16.56580     11.01959      0.00863        -0.002888      0.020873     -0.021464
     17.72058     13.02763      1.64684        -0.002666     -0.012713     -0.009900
     22.34733     17.03307      0.83234         0.047193     -0.003088      0.003531
     18.87763     15.02879      0.83285         0.011330      0.023041     -0.010218
     20.05582     17.03258      0.01034        -0.233171     -0.002663     -0.005942
     21.19136     15.02733      1.65137        -0.006925     -0.003798     -0.003382
     16.56710     15.03066      0.00946         0.011594     -0.010154     -0.001300
     17.72552     17.03230      1.65020         0.058680     -0.007329      0.004903
     22.34709     21.04325      0.83135        -0.108961     -0.042012     -0.009711
     18.87735     19.03606      0.83252         0.012429     -0.030525     -0.009400
     20.03315     21.04214      0.01429         0.006870     -0.009936     -0.032635
     21.19094     19.03840      1.65125         0.004324     -0.005981     -0.006838
     16.56658     19.03288      0.00906         0.011490      0.005754      0.001595
     17.71978     21.03631      1.64752         0.007263      0.012527     -0.009585
     22.34801     25.05243      0.82720         0.083142      0.209007     -0.018437
     18.87574     23.04549      0.83211        -0.047072     -0.045800     -0.004188
     20.03316     25.05243      0.01051        -0.018013      0.064276     -0.021555
     21.18981     23.04782      1.64878        -0.096428     -0.139480     -0.027282
     16.56499     23.04409      0.00984        -0.001882     -0.018782     -0.019958
     17.72013     25.05242      1.64677         0.013090     -0.141250      0.020823
     18.87739     27.05886      0.82560         0.107152      0.274879     -0.191033
     21.19167     27.05780      1.64358         0.039462      0.167415      0.057073
     16.56384     27.05966      0.00665        -0.001697      0.340168      0.001620
     17.72074     29.06501      1.64147        -0.284710     -0.370254      0.217923
     23.50715      7.00979      0.00571        -0.219051      0.431365      0.127227
     24.66352      9.01552      1.64416         0.000669     -0.097705     -0.009434
     25.82001     11.02076      0.82612        -0.021476     -0.032285      0.000605
     26.97675     13.02542      0.00679         0.106692      0.107032      0.044599
     23.50518     11.01927      0.01010         0.112682      0.014708     -0.006438
     24.66190     13.02455      1.64701         0.034484     -0.069128      0.015409
     25.81865     15.02932      0.82711         0.229553     -0.013109      0.036219
     26.97560     17.03359      0.00650         0.435585     -0.003474      0.220082
     28.13366     15.02965      1.64189        -0.411872      0.058248     -0.183405
     23.50445     15.02841      0.01275        -0.114694      0.028300     -0.008434
     24.66094     17.03340      1.64732        -0.153346     -0.000077     -0.010614
     25.81836     19.03769      0.82694         0.229959      0.005789      0.039178
     26.97638     21.04172      0.00663         0.108135     -0.103729      0.044270
     28.13345     19.03760      1.64178        -0.409648     -0.062518     -0.184420
     23.50408     19.03810      0.01255        -0.112993     -0.028490     -0.004160
     24.66142     21.04224      1.64682         0.040237      0.065942      0.012724
     25.81953     23.04622      0.82600        -0.015935      0.031035     -0.000629
     23.50456     23.04726      0.01004         0.121021     -0.018200     -0.003496
     24.66297     25.05127      1.64416         0.003213      0.098749     -0.011524
     23.50654     27.05677      0.00590        -0.223439     -0.427429      0.127955
 -----------------------------------------------------------------------------------
    total drift:                               -0.078809      0.030173     -0.339618


--------------------------------------------------------------------------------------------------------



 mean value of Nose-termostat <S>:     1.000 mean value of <T> :     0.000
 mean temperature <T/S>/<1/S>  :     0.000

 writing wavefunctions
     LOOP+:  VPU time  799.97: CPU time  813.76
 


 total charge     
 
# of ion     s       p       d       tot
----------------------------------------
  1        0.472   0.398   6.212   7.083
  2        0.482   0.531   6.253   7.265
  3        0.471   0.399   6.215   7.085
  4        0.475   0.400   6.209   7.084
  5        0.483   0.534   6.245   7.262
  6        0.472   0.320   6.208   7.000
  7        0.476   0.475   6.227   7.177
  8        0.482   0.528   6.251   7.262
  9        0.482   0.531   6.248   7.261
 10        0.472   0.320   6.206   6.998
 11        0.471   0.398   6.212   7.082
 12        0.482   0.528   6.249   7.259
 13        0.472   0.398   6.213   7.084
 14        0.475   0.400   6.207   7.082
 15        0.466   0.322   6.202   6.990
 16        0.483   0.534   6.245   7.263
 17        0.469   0.397   6.209   7.075
 18        0.483   0.531   6.248   7.263
 19        0.478   0.476   6.225   7.179
 20        0.477   0.320   6.207   7.003
 21        0.480   0.527   6.256   7.263
 22        0.485   0.540   6.243   7.269
 23        0.484   0.537   6.244   7.265
 24        0.485   0.540   6.240   7.264
 25        0.485   0.538   6.242   7.265
 26        0.482   0.531   6.251   7.264
 27        0.485   0.537   6.240   7.262
 28        0.486   0.541   6.244   7.271
 29        0.484   0.540   6.239   7.263
 30        0.485   0.540   6.237   7.262
 31        0.486   0.540   6.240   7.266
 32        0.484   0.537   6.240   7.262
 33        0.485   0.539   6.233   7.257
 34        0.485   0.540   6.236   7.261
 35        0.484   0.540   6.233   7.257
 36        0.485   0.539   6.231   7.256
 37        0.486   0.540   6.236   7.262
 38        0.484   0.537   6.236   7.257
 39        0.485   0.537   6.232   7.254
 40        0.483   0.534   6.243   7.261
 41        0.484   0.536   6.237   7.258
 42        0.483   0.531   6.245   7.260
 43        0.485   0.538   6.235   7.257
 44        0.482   0.531   6.247   7.260
 45        0.480   0.527   6.255   7.262
 46        0.466   0.323   6.206   6.995
 47        0.469   0.398   6.212   7.079
 48        0.478   0.476   6.226   7.181
 49        0.477   0.320   6.213   7.010
 50        0.466   0.322   6.198   6.986
 51        0.480   0.527   6.250   7.257
 52        0.478   0.476   6.220   7.174
 53        0.483   0.531   6.242   7.257
 54        0.469   0.396   6.201   7.066
 55        0.482   0.525   6.251   7.258
 56        0.483   0.534   6.243   7.261
 57        0.485   0.537   6.237   7.258
 58        0.485   0.538   6.238   7.261
 59        0.485   0.540   6.239   7.263
 60        0.484   0.537   6.238   7.259
 61        0.485   0.539   6.238   7.262
 62        0.485   0.540   6.243   7.269
 63        0.487   0.542   6.238   7.267
 64        0.485   0.539   6.243   7.268
 65        0.485   0.541   6.244   7.269
 66        0.485   0.541   6.241   7.268
 67        0.486   0.541   6.246   7.273
 68        0.485   0.538   6.246   7.269
 69        0.485   0.537   6.235   7.256
 70        0.485   0.539   6.239   7.264
 71        0.485   0.539   6.235   7.259
 72        0.485   0.541   6.239   7.266
 73        0.486   0.541   6.242   7.268
 74        0.485   0.540   6.237   7.262
 75        0.480   0.526   6.249   7.256
 76        0.485   0.538   6.234   7.257
 77        0.483   0.531   6.242   7.256
 78        0.484   0.536   6.236   7.256
 79        0.485   0.539   6.233   7.256
 80        0.483   0.534   6.242   7.259
 81        0.478   0.476   6.222   7.175
 82        0.469   0.397   6.202   7.067
 83        0.482   0.525   6.252   7.258
 84        0.466   0.322   6.202   6.990
 85        0.476   0.318   6.195   6.989
 86        0.472   0.397   6.201   7.070
 87        0.475   0.398   6.197   7.070
 88        0.471   0.397   6.204   7.072
 89        0.482   0.530   6.244   7.257
 90        0.482   0.531   6.246   7.259
 91        0.482   0.528   6.247   7.257
 92        0.475   0.474   6.219   7.169
 93        0.472   0.319   6.196   6.987
 94        0.484   0.538   6.239   7.260
 95        0.483   0.534   6.243   7.261
 96        0.482   0.528   6.245   7.256
 97        0.471   0.397   6.203   7.071
 98        0.472   0.319   6.195   6.986
 99        0.484   0.538   6.238   7.259
100        0.482   0.530   6.244   7.257
101        0.475   0.398   6.195   7.068
102        0.482   0.530   6.242   7.255
103        0.472   0.396   6.200   7.068
104        0.476   0.318   6.194   6.988
------------------------------------------------
tot       49.940  50.541 647.985 748.467
 


 magnetization (x)
 
# of ion     s       p       d       tot
----------------------------------------
  1       -0.005  -0.022   2.667   2.640
  2       -0.017  -0.061   2.409   2.331
  3       -0.005  -0.022   2.655   2.629
  4       -0.005  -0.022   2.658   2.631
  5       -0.015  -0.061   2.362   2.285
  6        0.010   0.007   2.768   2.784
  7       -0.013  -0.048   2.511   2.449
  8       -0.016  -0.061   2.453   2.376
  9       -0.017  -0.061   2.408   2.330
 10        0.010   0.007   2.770   2.786
 11       -0.005  -0.022   2.656   2.630
 12       -0.016  -0.061   2.452   2.375
 13       -0.005  -0.022   2.666   2.639
 14       -0.005  -0.022   2.658   2.631
 15        0.011   0.004   2.776   2.791
 16       -0.015  -0.060   2.352   2.276
 17       -0.003  -0.022   2.682   2.657
 18       -0.015  -0.059   2.395   2.321
 19       -0.012  -0.049   2.476   2.415
 20        0.008   0.011   2.755   2.774
 21       -0.017  -0.062   2.458   2.379
 22       -0.015  -0.059   2.265   2.191
 23       -0.015  -0.060   2.321   2.245
 24       -0.015  -0.060   2.280   2.205
 25       -0.015  -0.061   2.300   2.224
 26       -0.016  -0.060   2.427   2.351
 27       -0.014  -0.061   2.321   2.246
 28       -0.014  -0.057   2.267   2.195
 29       -0.015  -0.060   2.279   2.203
 30       -0.015  -0.059   2.268   2.195
 31       -0.014  -0.058   2.283   2.210
 32       -0.015  -0.061   2.313   2.237
 33       -0.014  -0.061   2.296   2.221
 34       -0.015  -0.059   2.262   2.188
 35       -0.015  -0.060   2.276   2.200
 36       -0.015  -0.060   2.276   2.201
 37       -0.014  -0.058   2.280   2.208
 38       -0.015  -0.061   2.311   2.235
 39       -0.014  -0.061   2.318   2.243
 40       -0.015  -0.060   2.350   2.275
 41       -0.015  -0.060   2.318   2.243
 42       -0.015  -0.059   2.393   2.320
 43       -0.015  -0.061   2.296   2.221
 44       -0.016  -0.060   2.426   2.350
 45       -0.017  -0.062   2.457   2.379
 46        0.011   0.004   2.772   2.788
 47       -0.004  -0.022   2.679   2.653
 48       -0.012  -0.049   2.475   2.414
 49        0.008   0.011   2.750   2.769
 50        0.012   0.004   2.779   2.795
 51       -0.017  -0.062   2.457   2.379
 52       -0.012  -0.049   2.477   2.417
 53       -0.015  -0.059   2.394   2.320
 54       -0.003  -0.021   2.687   2.662
 55       -0.015  -0.060   2.458   2.383
 56       -0.015  -0.060   2.351   2.275
 57       -0.014  -0.061   2.318   2.243
 58       -0.015  -0.061   2.298   2.223
 59       -0.015  -0.060   2.279   2.204
 60       -0.015  -0.061   2.318   2.243
 61       -0.015  -0.061   2.318   2.243
 62       -0.015  -0.059   2.266   2.192
 63       -0.014  -0.062   2.288   2.212
 64       -0.014  -0.058   2.287   2.215
 65       -0.015  -0.059   2.266   2.193
 66       -0.015  -0.060   2.274   2.199
 67       -0.015  -0.057   2.274   2.203
 68       -0.014  -0.057   2.272   2.201
 69       -0.014  -0.061   2.317   2.242
 70       -0.014  -0.058   2.286   2.214
 71       -0.015  -0.060   2.277   2.202
 72       -0.015  -0.060   2.273   2.198
 73       -0.015  -0.057   2.272   2.200
 74       -0.015  -0.059   2.263   2.189
 75       -0.017  -0.062   2.457   2.379
 76       -0.015  -0.061   2.296   2.221
 77       -0.015  -0.059   2.394   2.320
 78       -0.015  -0.061   2.317   2.242
 79       -0.015  -0.061   2.316   2.240
 80       -0.015  -0.060   2.350   2.275
 81       -0.012  -0.049   2.477   2.416
 82       -0.003  -0.022   2.687   2.662
 83       -0.015  -0.060   2.458   2.383
 84        0.012   0.004   2.776   2.792
 85        0.008   0.012   2.765   2.785
 86       -0.005  -0.021   2.675   2.649
 87       -0.005  -0.021   2.666   2.640
 88       -0.005  -0.021   2.662   2.636
 89       -0.016  -0.060   2.425   2.349
 90       -0.017  -0.061   2.407   2.330
 91       -0.016  -0.061   2.451   2.374
 92       -0.013  -0.048   2.512   2.450
 93        0.010   0.007   2.777   2.794
 94       -0.015  -0.061   2.311   2.234
 95       -0.016  -0.061   2.359   2.283
 96       -0.016  -0.061   2.451   2.374
 97       -0.005  -0.021   2.663   2.637
 98        0.010   0.007   2.778   2.794
 99       -0.015  -0.061   2.310   2.234
100       -0.017  -0.061   2.407   2.330
101       -0.005  -0.021   2.667   2.641
102       -0.016  -0.060   2.425   2.349
103       -0.005  -0.021   2.675   2.650
104        0.008   0.012   2.766   2.786
------------------------------------------------
tot       -1.095  -4.749 254.677 248.833
 
  
  
 General timing and accounting informations for this job:
 ========================================================
  
                  Total CPU time used (sec):      832.709
                            User time (sec):      824.673
                          System time (sec):        8.037
                         Elapsed time (sec):      848.680
  
                   Maximum memory used (kb):           0.
                   Average memory used (kb):           0.
  
                          Minor page faults:       213796
                          Major page faults:            0
                 Voluntary context switches:        79979
