 vasp.4.6.36 17Feb09 complex 
 executed on             LinuxIFC date 2013.02.08  09:57:01
 running on   32 nodes
 distr:  one band on    1 nodes,   32 groups


--------------------------------------------------------------------------------------------------------


 INCAR:
 POTCAR:   PAW_PBE Si 05Jan2001                   
 POTCAR:   PAW_PBE H 15Jun2001                    
 POTCAR:   PAW_PBE Si 05Jan2001                   
   VRHFIN =Si: s2p2                                                             
   LEXCH  = PE                                                                  
   EATOM  =   103.0669 eV,    7.5752 Ry                                         
                                                                                
   TITEL  = PAW_PBE Si 05Jan2001                                                
   LULTRA =        F    use ultrasoft PP ?                                      
   IUNSCR =        1    unscreen: 0-lin 1-nonlin 2-no                           
   RPACOR =    1.500    partial core radius                                     
   POMASS =   28.085; ZVAL   =    4.000    mass and valenz                      
   RCORE  =    1.900    outmost cutoff radius                                   
   RWIGS  =    2.480; RWIGS  =    1.312    wigner-seitz radius (au A)           
   ENMAX  =  245.345; ENMIN  =  184.009 eV                                      
   ICORE  =        2    local potential                                         
   LCOR   =        T    correct aug charges                                     
   LPAW   =        T    paw PP                                                  
   EAUG   =  322.069                                                            
   DEXC   =    -.007                                                            
   RMAX   =    2.944    core radius for proj-oper                               
   RAUG   =    1.300    factor for augmentation sphere                          
   RDEP   =    1.993    radius for radial grids                                 
   QCUT   =   -4.246; QGAM   =    8.493    optimization parameters              
                                                                                
   Description                                                                  
     l     E      TYP  RCUT    TYP  RCUT                                        
     0   .000     23  1.900                                                     
     0   .000     23  1.900                                                     
     1   .000     23  1.900                                                     
     1   .000     23  1.900                                                     
     2   .000      7  1.900                                                     
  local pseudopotential read in
  partial core-charges read in
  atomic valenz-charges read in
  non local Contribution for L=           0  read in
    real space projection operators read in
  non local Contribution for L=           0  read in
    real space projection operators read in
  non local Contribution for L=           1  read in
    real space projection operators read in
  non local Contribution for L=           1  read in
    real space projection operators read in
    PAW grid and wavefunctions read in
 
   number of l-projection  operators is LMAX  =           4
   number of lm-projection operators is LMMAX =           8
 
 POTCAR:   PAW_PBE H 15Jun2001                    
   VRHFIN =H: ultrasoft test                                                    
   LEXCH  = PE                                                                  
   EATOM  =    12.4884 eV,     .9179 Ry                                         
                                                                                
   TITEL  = PAW_PBE H 15Jun2001                                                 
   LULTRA =        F    use ultrasoft PP ?                                      
   IUNSCR =        0    unscreen: 0-lin 1-nonlin 2-no                           
   RPACOR =     .000    partial core radius                                     
   POMASS =    1.000; ZVAL   =    1.000    mass and valenz                      
   RCORE  =    1.100    outmost cutoff radius                                   
   RWIGS  =     .700; RWIGS  =     .370    wigner-seitz radius (au A)           
   ENMAX  =  250.000; ENMIN  =  200.000 eV                                      
   RCLOC  =     .701    cutoff for local pot                                    
   LCOR   =        T    correct aug charges                                     
   LPAW   =        T    paw PP                                                  
   EAUG   =  400.000                                                            
   RMAX   =    2.174    core radius for proj-oper                               
   RAUG   =    1.200    factor for augmentation sphere                          
   RDEP   =    1.112    radius for radial grids                                 
   QCUT   =   -5.749; QGAM   =   11.498    optimization parameters              
                                                                                
   Description                                                                  
     l     E      TYP  RCUT    TYP  RCUT                                        
     0   .000     23  1.100                                                     
     0   .500     23  1.100                                                     
     1  -.300     23  1.100                                                     
  local pseudopotential read in
  atomic valenz-charges read in
  non local Contribution for L=           0  read in
    real space projection operators read in
  non local Contribution for L=           0  read in
    real space projection operators read in
  non local Contribution for L=           1  read in
    real space projection operators read in
    PAW grid and wavefunctions read in
 
   number of l-projection  operators is LMAX  =           3
   number of lm-projection operators is LMMAX =           5
 
 Optimization of the real space projectors (new method)

 maximal supplied QI-value         = 19.84
 optimisation between [QCUT,QGAM] = [  7.14, 14.48] = [ 14.29, 58.75] Ry 
 Optimized for a Real-space Cutoff    1.64 Angstroem

   l    n(q)    QCUT    max X(q) W(low)/X(q) W(high)/X(q)  e(spline) 
   0      7     7.143     8.708    0.20E-04    0.59E-05    0.16E-07
   0      7     7.143   106.241    0.40E-03    0.58E-03    0.96E-07
   1      6     7.143     5.901    0.17E-03    0.76E-04    0.37E-07
   1      6     7.143    73.241    0.48E-03    0.94E-04    0.18E-06
 Optimization of the real space projectors (new method)

 maximal supplied QI-value         = 34.20
 optimisation between [QCUT,QGAM] = [  7.18, 14.37] = [ 14.45, 57.79] Ry 
 Optimized for a Real-space Cutoff    2.13 Angstroem

   l    n(q)    QCUT    max X(q) W(low)/X(q) W(high)/X(q)  e(spline) 
   0      9     7.183     4.436    0.64E-04    0.20E-03    0.35E-06
   0      9     7.183    13.769    0.39E-03    0.14E-02    0.15E-05
   1      9     7.183     3.837    0.37E-03    0.14E-02    0.11E-05
 PAW_PBE Si 05Jan2001                   :
 energy of atom  1       EATOM= -103.0669
 kinetic energy error for atom=    0.0107 (will be added to EATOM!!)
 PAW_PBE H 15Jun2001                    :
 energy of atom  2       EATOM=  -12.4884
 kinetic energy error for atom=    0.1732 (will be added to EATOM!!)
 
 EXHCAR: internal setup
 exchange correlation table for  LEXCH =        8
   RHO(1)=    0.500       N(1)  =     2000
   RHO(2)=  100.500       N(2)  =     4000
 
 POSCAR:  bulk Si                                
  positions in direct lattice
  No initial velocities read in
 


--------------------------------------------------------------------------------------------------------


 ion  position               nearest neighbor table
   1  0.977  0.977  0.977-  65 1.58  47 2.34  54 2.34  32 2.34
   2  0.256  0.256  0.998-   5 2.34   6 2.35  15 2.37  16 2.37
   3  0.256  0.998  0.256-   5 2.34   7 2.35  22 2.37  24 2.37
   4  0.998  0.256  0.256-   5 2.34   8 2.35  38 2.37  39 2.37
   5  0.148  0.148  0.148-  65 1.67   3 2.34   4 2.34   2 2.34
   6  0.378  0.378  0.126-   2 2.35  49 2.36  36 2.37  19 2.37
   7  0.378  0.126  0.378-   3 2.35  41 2.36  36 2.37  10 2.37
   8  0.126  0.378  0.378-   4 2.35  25 2.36  19 2.37  10 2.37
   9  1.000  1.000  0.500-  24 2.37  39 2.37  62 2.37  13 2.37
  10  0.250  0.250  0.501-  14 2.37  13 2.37   7 2.37   8 2.37
  11  0.250  0.001  0.750-  13 2.37  32 2.37  15 2.37  30 2.37
  12  0.001  0.250  0.750-  13 2.37  47 2.37  16 2.37  46 2.37
  13  0.125  0.125  0.625-  11 2.37  12 2.37  10 2.37   9 2.37
  14  0.375  0.375  0.626-  27 2.37  44 2.37  10 2.37  57 2.37
  15  0.375  0.124  0.875-  33 2.37   2 2.37  11 2.37  44 2.37
  16  0.124  0.375  0.875-  17 2.37   2 2.37  12 2.37  27 2.37
  17  1.000  0.500  1.000-  16 2.37  38 2.37  63 2.37  21 2.37
  18  0.250  0.750  0.001-  21 2.37  32 2.37  22 2.37  31 2.37
  19  0.250  0.501  0.250-  23 2.37  21 2.37   6 2.37   8 2.37
  20  0.001  0.750  0.250-  21 2.37  54 2.37  24 2.37  55 2.37
  21  0.125  0.625  0.125-  18 2.37  20 2.37  19 2.37  17 2.37
  22  0.375  0.875  0.124-  33 2.37   3 2.37  18 2.37  52 2.37
  23  0.375  0.626  0.375-  26 2.37  52 2.37  19 2.37  57 2.37
  24  0.124  0.875  0.375-   9 2.37   3 2.37  20 2.37  26 2.37
  25  1.000  0.501  0.501-  29 2.36   8 2.36  46 2.37  55 2.37
  26  0.250  0.750  0.500-  23 2.37  29 2.37  30 2.37  24 2.37
  27  0.250  0.500  0.750-  14 2.37  29 2.37  31 2.37  16 2.37
  28  0.999  0.747  0.747-  32 2.35  29 2.36  62 2.37  63 2.37
  29  0.125  0.624  0.624-  25 2.36  28 2.36  27 2.37  26 2.37
  30  0.375  0.875  0.625-  60 2.37  41 2.37  26 2.37  11 2.37
  31  0.375  0.625  0.875-  60 2.37  49 2.37  27 2.37  18 2.37
  32  0.127  0.869  0.869-   1 2.34  28 2.35  18 2.37  11 2.37
  33  0.500  1.000  1.000-  15 2.37  22 2.37  64 2.37  37 2.37
  34  0.750  0.250  0.001-  37 2.37  47 2.37  38 2.37  48 2.37
  35  0.750  0.001  0.250-  37 2.37  54 2.37  39 2.37  56 2.37
  36  0.501  0.250  0.250-  40 2.37  37 2.37   6 2.37   7 2.37
  37  0.625  0.125  0.125-  34 2.37  35 2.37  36 2.37  33 2.37
  38  0.875  0.375  0.124-  17 2.37   4 2.37  34 2.37  51 2.37
  39  0.875  0.124  0.375-   9 2.37   4 2.37  35 2.37  42 2.37
  40  0.626  0.375  0.375-  42 2.37  51 2.37  36 2.37  57 2.37
  41  0.501  1.000  0.501-  45 2.36   7 2.36  30 2.37  56 2.37
  42  0.750  0.250  0.500-  40 2.37  45 2.37  46 2.37  39 2.37
  43  0.747  0.999  0.747-  47 2.35  45 2.36  62 2.37  64 2.37
  44  0.500  0.250  0.750-  14 2.37  45 2.37  48 2.37  15 2.37
  45  0.624  0.125  0.624-  41 2.36  43 2.36  42 2.37  44 2.37
  46  0.875  0.375  0.625-  59 2.37  25 2.37  42 2.37  12 2.37
  47  0.869  0.127  0.869-   1 2.34  43 2.35  34 2.37  12 2.37
  48  0.625  0.375  0.875-  59 2.37  49 2.37  44 2.37  34 2.37
  49  0.501  0.501  1.000-  53 2.36   6 2.36  48 2.37  31 2.37
  50  0.747  0.747  0.999-  54 2.35  53 2.36  63 2.37  64 2.37
  51  0.750  0.500  0.250-  40 2.37  53 2.37  55 2.37  38 2.37
  52  0.500  0.750  0.250-  23 2.37  53 2.37  56 2.37  22 2.37
  53  0.624  0.624  0.125-  49 2.36  50 2.36  51 2.37  52 2.37
  54  0.869  0.869  0.127-   1 2.34  50 2.35  35 2.37  20 2.37
  55  0.875  0.625  0.375-  58 2.37  25 2.37  51 2.37  20 2.37
  56  0.625  0.875  0.375-  58 2.37  41 2.37  52 2.37  35 2.37
  57  0.500  0.500  0.500-  61 2.37  23 2.37  40 2.37  14 2.37
  58  0.750  0.750  0.499-  55 2.37  56 2.37  62 2.37  61 2.37
  59  0.750  0.499  0.750-  46 2.37  48 2.37  63 2.37  61 2.37
  60  0.499  0.750  0.750-  30 2.37  31 2.37  64 2.37  61 2.37
  61  0.625  0.625  0.625-  57 2.37  58 2.37  59 2.37  60 2.37
  62  0.875  0.875  0.624-  58 2.37   9 2.37  43 2.37  28 2.37
  63  0.875  0.624  0.875-  59 2.37  17 2.37  50 2.37  28 2.37
  64  0.624  0.875  0.875-  60 2.37  33 2.37  50 2.37  43 2.37
  65  0.060  0.060  0.060-   1 1.58   5 1.67
 
  LATTYP: Found a simple cubic cell.
 ALAT       =    10.9520000000
  
  Lattice vectors:
  
 A1 = (  10.9520000000,   0.0000000000,   0.0000000000)
 A2 = (   0.0000000000,  10.9520000000,   0.0000000000)
 A3 = (   0.0000000000,   0.0000000000,  10.9520000000)
 Subroutine PRICEL returns:
 Original cell was already a primitive cell.
 

Analysis of symmetry for initial positions (statically):

 Routine SETGRP: Setting up the symmetry group for a 
 simple cubic supercell.


 Subroutine GETGRP returns: Found  6 space group operations
 (whereof  6 operations were pure point group operations)
 out of a pool of 48 trial point group operations.


The static configuration has the point symmetry C_3v.

Analysis of symmetry for dynamics (positions and initial velocities):

 Subroutine DYNSYM returns: Found  6 space group operations
 (whereof  6 operations were pure point group operations)
 out of a pool of  6 trial space group operations
 (whereof  6 operations were pure point group operations)
 and found also     1 'primitive' translations


The dynamic configuration has the point symmetry C_3v.

Analysis of constrained symmetry for selective dynamics:

 Subroutine DYNSYM returns: Found  6 space group operations
 (whereof  6 operations were pure point group operations)
 out of a pool of  6 trial space group operations
 (whereof  6 operations were pure point group operations)
 and found also     1 'primitive' translations


The constrained configuration has the point symmetry C_3v.
 
 
 KPOINTS: 10x10x10                                

Automatic generation of k-mesh.
 
 Subroutine IBZKPT returns following result:
 ===========================================
 
 Found      6 irreducible k-points:
 
 Following reciprocal coordinates:
            Coordinates               Weight
  0.000000  0.000000  0.000000      1.000000
  0.333333  0.000000  0.000000      6.000000
  0.333333  0.333333  0.000000      6.000000
 -0.333333  0.333333  0.000000      6.000000
  0.333333  0.333333  0.333333      2.000000
 -0.333333  0.333333  0.333333      6.000000
 
 Following cartesian coordinates:
            Coordinates               Weight
  0.000000  0.000000  0.000000      1.000000
  0.166667  0.000000  0.000000      6.000000
  0.166667  0.166667  0.000000      6.000000
 -0.166667  0.166667  0.000000      6.000000
  0.166667  0.166667  0.166667      2.000000
 -0.166667  0.166667  0.166667      6.000000
 
 TETIRR: Found     30 inequivalent tetrahedra from      162


--------------------------------------------------------------------------------------------------------




 Dimension of arrays:
   k-Points           NKPTS =      6   number of bands    NBANDS=    192
   number of dos      NEDOS =    301   number of ions     NIONS =     65
   non local maximal  LDIM  =      4   non local SUM 2l+1 LMDIM =      8
   total plane-waves  NPLWV =  64000
   max r-space proj   IRMAX =   2031   max aug-charges    IRDMAX=   1828
   dimension x,y,z NGX =    40 NGY =   40 NGZ =   40
   dimension x,y,z NGXF=    80 NGYF=   80 NGZF=   80
   support grid    NGXF=    80 NGYF=   80 NGZF=   80
   ions per type =              64   1
 NGX,Y,Z   is equivalent  to a cutoff of   6.07,  6.07,  6.07 a.u.
 NGXF,Y,Z  is equivalent  to a cutoff of  12.14, 12.14, 12.14 a.u.


 I would recommend the setting:
   dimension x,y,z NGX =    38 NGY =   38 NGZ =   38
 SYSTEM =  bcc iron                                
 POSCAR =   bulk Si                                

 Startparameter for this run:
   NWRITE =      2    write-flag & timer
   PREC   = normal    medium, high low
   ISTART =      1    job   : 0-new  1-cont  2-samecut
   ICHARG =      1    charge: 1-file 2-atom 10-const
   ISPIN  =      1    spin polarized calculation?
   LNONCOLLINEAR =      F non collinear calculations
   LSORBIT =      F    spin-orbit coupling
   INIWAV =      1    electr: 0-lowe 1-rand  2-diag
   LASPH  =      F    aspherical Exc in radial PAW
   METAGGA=      F    non-selfconsistent MetaGGA calc.

 Electronic Relaxation 1
   ENCUT  =  200.0 eV  14.70 Ry    3.83 a.u.  12.63 12.63 12.63*2*pi/ulx,y,z
   ENINI  =  200.0     initial cutoff
   ENAUG  =  400.0 eV  augmentation charge cutoff
   NELM   =     60;   NELMIN=  4; NELMDL=  0     # of ELM steps 
   EDIFF  = 0.1E-05   stopping-criterion for ELM
   LREAL  =      T    real-space projection
   LCOMPAT=      F    compatible to vasp.4.4
   LREAL_COMPAT= F    compatible to vasp.4.5.1-3
   GGA_COMPAT  = T    GGA compatible to vasp.4.4-vasp.4.6
   LMAXPAW     = -100 max onsite density
   LMAXMIX     =    2 max onsite mixed and CHGCAR
   VOSKOWN=      0    Vosko Wilk Nusair interpolation
   ROPT   =   -0.00050  -0.00050
 Ionic relaxation
   EDIFFG = 0.1E-04   stopping-criterion for IOM
   NSW    =    100    number of steps for IOM
   NBLOCK =      1;   KBLOCK =    100    inner block; outer block 
   IBRION =      3    ionic relax: 0-MD 1-quasi-New 2-CG
   NFREE  =      0    steps in history (QN), initial steepest desc. (CG)
   ISIF   =      2    stress and relaxation
   IWAVPR =     11    prediction:  0-non 1-charg 2-wave 3-comb
   ISYM   =      2    0-nonsym 1-usesym 2-fastsym
   LCORR  =      T    Harris-Foulkes like correction to forces

   POTIM  =   0.50    time-step for ionic-motion
   TEIN   =    0.0    initial temperature
   TEBEG  =    0.0;   TEEND  =   0.0 temperature during run
   SMASS  =   0.40    Nose mass-parameter (am)
   estimated Nose-frequenzy (Omega)   =  0.26E+11 period in steps =****** mass=   0.365E-27a.u.
   NPACO  =    256;   APACO  = 16.0  distance and # of slots for P.C.
   PSTRESS=    0.0 pullay stress

  Mass of Ions in am
   POMASS =  28.09  1.00
  Ionic Valenz
   ZVAL   =   4.00  1.00
  Atomic Wigner-Seitz radii
   RWIGS  =  -1.00 -1.00
   NELECT =     257.0000    total number of electrons
   NUPDOWN=      -1.0000    fix difference up-down

 DOS related values:
   EMIN   =  10.00;   EMAX   =-10.00  energy-range for DOS
   ISMEAR =    -5;   SIGMA  =   0.00  broadening in eV -4-tet -1-fermi 0-gaus

 Electronic relaxation 2 (details)
   IALGO  =     48    algorithm
   LDIAG  =      T    sub-space diagonalisation
   IMIX   =      4    mixing-type and parameters
     AMIX     =   0.40;   BMIX     =  1.00
     AMIX_MAG =   1.60;   BMIX_MAG =  1.00
     AMIN     =   0.10
     WC   =   100.;   INIMIX=   1;  MIXPRE=   1

 Intra band minimization:
   WEIMIN = 0.0010     energy-eigenvalue tresh-hold
   EBREAK =  0.16E-08  absolut break condition
   DEPER  =   0.30     relativ break condition  

   TIME   =   0.10     timestep for ELM

  volume/ion in A,a.u.               =      20.21       136.38
  Fermi-wavevector in a.u.,eV,Ry     =   0.950369 12.288809  0.903202

 Second variation
   LSECVAR=     F    do a second variation
 
 Write flags
   LWAVE  =      T    write WAVECAR
   LCHARG =      T    write CHGCAR
   LVTOT  =      F    write LOCPOT, local potential
   LELF   =      F    write electronic localiz. function (ELF)
   LORBIT =      0    0 simple, 1 ext, 2 COOP (PROOUT)


 Dipole corrections
   IDIPOL =      0    1-x, 2-y, 3-z
   LDIPOL =      F    correct potential



--------------------------------------------------------------------------------------------------------


 quickmin algorithm: (dynamic with friction)
   using selective dynamics as specified on POSCAR
 charge density will be updated during run
 non-spin polarized calculation
 RMM-DIIS sequential band-by-band
 performe sub-space diagonalisation
    before iterative eigenvector-optimisation
 modified Broyden-mixing scheme, WC =      100.0
 initial mixing is a Kerker type mixing with AMIX =  0.4000 and BMIX =      1.0000
 Hartree-type preconditioning will be used
 using additional bands           63
 real space projection scheme for non local part
 use partial core corrections
 calculate Harris-corrections to forces 
   (improved forces if not selfconsistent)
 use gradient corrections 
 use of overlap-Matrix (Vanderbilt PP)
 Fermi weights with tetrahedron method with Bloechl corrections


--------------------------------------------------------------------------------------------------------


  energy-cutoff  :      200.00
  volume of cell :     1313.65
      direct lattice vectors                 reciprocal lattice vectors
    10.952000000  0.000000000  0.000000000     0.091307524  0.000000000  0.000000000
     0.000000000 10.952000000  0.000000000     0.000000000  0.091307524  0.000000000
     0.000000000  0.000000000 10.952000000     0.000000000  0.000000000  0.091307524

  length of vectors
    10.952000000 10.952000000 10.952000000     0.091307524  0.091307524  0.091307524


 
 old parameters found on file WAVECAR:
  energy-cutoff  :      200.00
  volume of cell :     1313.65
      direct lattice vectors                 reciprocal lattice vectors
    10.952000000  0.000000000  0.000000000     0.091307524  0.000000000  0.000000000
     0.000000000 10.952000000  0.000000000     0.000000000  0.091307524  0.000000000
     0.000000000  0.000000000 10.952000000     0.000000000  0.000000000  0.091307524

  length of vectors

 
 k-points in units of 2pi/SCALE and weight: 10x10x10                                
   0.00000000  0.00000000  0.00000000       0.037
   0.16666667  0.00000000  0.00000000       0.222
   0.16666667  0.16666667  0.00000000       0.222
  -0.16666667  0.16666667  0.00000000       0.222
   0.16666667  0.16666667  0.16666667       0.074
  -0.16666667  0.16666667  0.16666667       0.222
 
 k-points in reciprocal lattice and weights: 10x10x10                                
   0.00000000  0.00000000  0.00000000       0.037
   0.33333333  0.00000000  0.00000000       0.222
   0.33333333  0.33333333  0.00000000       0.222
  -0.33333333  0.33333333  0.00000000       0.222
   0.33333333  0.33333333  0.33333333       0.074
  -0.33333333  0.33333333  0.33333333       0.222
 
 position of ions in fractional coordinates (direct lattice) 
   0.97674464  0.97674464  0.97674464
   0.25557897  0.25557897  0.99828570
   0.25557897  0.99828570  0.25557897
   0.99828570  0.25557897  0.25557897
   0.14825536  0.14825536  0.14825536
   0.37765367  0.37765367  0.12610209
   0.37765367  0.12610209  0.37765367
   0.12610209  0.37765367  0.37765367
   0.99992780  0.99992780  0.50023127
   0.25044685  0.25044685  0.50080689
   0.24999761  0.00060076  0.74956636
   0.00060076  0.24999761  0.74956636
   0.12507220  0.12507220  0.62476873
   0.37526883  0.37526883  0.62565254
   0.37543364  0.12439924  0.87500239
   0.12439924  0.37543364  0.87500239
   0.99992780  0.50023127  0.99992780
   0.24999761  0.74956636  0.00060076
   0.25044685  0.50080689  0.25044685
   0.00060076  0.74956636  0.24999761
   0.12507220  0.62476873  0.12507220
   0.37543364  0.87500239  0.12439924
   0.37526883  0.62565254  0.37526883
   0.12439924  0.87500239  0.37543364
   0.99964013  0.50079719  0.50079719
   0.24996760  0.75011944  0.49997511
   0.24996760  0.49997511  0.75011944
   0.99889791  0.74734633  0.74734633
   0.12535987  0.62420281  0.62420281
   0.37488056  0.87503240  0.62502489
   0.37488056  0.62502489  0.87503240
   0.12671430  0.86942103  0.86942103
   0.50023127  0.99992780  0.99992780
   0.74956636  0.24999761  0.00060076
   0.74956636  0.00060076  0.24999761
   0.50080689  0.25044685  0.25044685
   0.62476873  0.12507220  0.12507220
   0.87500239  0.37543364  0.12439924
   0.87500239  0.12439924  0.37543364
   0.62565254  0.37526883  0.37526883
   0.50079719  0.99964013  0.50079719
   0.75011944  0.24996760  0.49997511
   0.74734633  0.99889791  0.74734633
   0.49997511  0.24996760  0.75011944
   0.62420281  0.12535987  0.62420281
   0.87503240  0.37488056  0.62502489
   0.86942103  0.12671430  0.86942103
   0.62502489  0.37488056  0.87503240
   0.50079719  0.50079719  0.99964013
   0.74734633  0.74734633  0.99889791
   0.75011944  0.49997511  0.24996760
   0.49997511  0.75011944  0.24996760
   0.62420281  0.62420281  0.12535987
   0.86942103  0.86942103  0.12671430
   0.87503240  0.62502489  0.37488056
   0.62502489  0.87503240  0.37488056
   0.50004382  0.50004382  0.50004382
   0.74973117  0.74973117  0.49934746
   0.74973117  0.49934746  0.74973117
   0.49934746  0.74973117  0.74973117
   0.62495618  0.62495618  0.62495618
   0.87455315  0.87455315  0.62419311
   0.87455315  0.62419311  0.87455315
   0.62419311  0.87455315  0.87455315
   0.06000000  0.06000000  0.06000000
 
 position of ions in cartesian coordinates  (Angst):
  10.69730730 10.69730730 10.69730730
   2.79910088  2.79910088 10.93322499
   2.79910088 10.93322499  2.79910088
  10.93322499  2.79910088  2.79910088
   1.62369270  1.62369270  1.62369270
   4.13606299  4.13606299  1.38107009
   4.13606299  1.38107009  4.13606299
   1.38107009  4.13606299  4.13606299
  10.95120927 10.95120927  5.47853287
   2.74289390  2.74289390  5.48483706
   2.73797382  0.00657952  8.20925077
   0.00657952  2.73797382  8.20925077
   1.36979073  1.36979073  6.84246713
   4.10994423  4.10994423  6.85214662
   4.11174923  1.36242048  9.58302618
   1.36242048  4.11174923  9.58302618
  10.95120927  5.47853287 10.95120927
   2.73797382  8.20925077  0.00657952
   2.74289390  5.48483706  2.74289390
   0.00657952  8.20925077  2.73797382
   1.36979073  6.84246713  1.36979073
   4.11174923  9.58302618  1.36242048
   4.10994423  6.85214662  4.10994423
   1.36242048  9.58302618  4.11174923
  10.94805870  5.48473082  5.48473082
   2.73764516  8.21530811  5.47572740
   2.73764516  5.47572740  8.21530811
  10.93992991  8.18493701  8.18493701
   1.37294130  6.83626918  6.83626918
   4.10569189  9.58335484  6.84527260
   4.10569189  6.84527260  9.58335484
   1.38777501  9.52189912  9.52189912
   5.47853287 10.95120927 10.95120927
   8.20925077  2.73797382  0.00657952
   8.20925077  0.00657952  2.73797382
   5.48483706  2.74289390  2.74289390
   6.84246713  1.36979073  1.36979073
   9.58302618  4.11174923  1.36242048
   9.58302618  1.36242048  4.11174923
   6.85214662  4.10994423  4.10994423
   5.48473082 10.94805870  5.48473082
   8.21530811  2.73764516  5.47572740
   8.18493701 10.93992991  8.18493701
   5.47572740  2.73764516  8.21530811
   6.83626918  1.37294130  6.83626918
   9.58335484  4.10569189  6.84527260
   9.52189912  1.38777501  9.52189912
   6.84527260  4.10569189  9.58335484
   5.48473082  5.48473082 10.94805870
   8.18493701  8.18493701 10.93992991
   8.21530811  5.47572740  2.73764516
   5.47572740  8.21530811  2.73764516
   6.83626918  6.83626918  1.37294130
   9.52189912  9.52189912  1.38777501
   9.58335484  6.84527260  4.10569189
   6.84527260  9.58335484  4.10569189
   5.47647992  5.47647992  5.47647992
   8.21105577  8.21105577  5.46885338
   8.21105577  5.46885338  8.21105577
   5.46885338  8.21105577  8.21105577
   6.84452008  6.84452008  6.84452008
   9.57810610  9.57810610  6.83616294
   9.57810610  6.83616294  9.57810610
   6.83616294  9.57810610  9.57810610
   0.65712000  0.65712000  0.65712000
 


--------------------------------------------------------------------------------------------------------


 k-point  1 :  0.00000.00000.0000  plane waves:   8385
 k-point  2 :  0.33330.00000.0000  plane waves:   8457
 k-point  3 :  0.33330.33330.0000  plane waves:   8456
 k-point  4 :  -.33330.33330.0000  plane waves:   8456
 k-point  5 :  0.33330.33330.3333  plane waves:   8426
 k-point  6 :  -.33330.33330.3333  plane waves:   8426

 maximum and minimum number of plane-waves per node :   8457  8385

 maximum number of plane-waves:   8457
 maximal index in each direction: 
   IXMAX= 12   IYMAX= 12   IZMAX= 12
   IXMIN=-12   IYMIN=-12   IZMIN=-12

 WARNING: wrap around error must be expected set NGX to  50
 WARNING: wrap around error must be expected set NGY to  50
 WARNING: wrap around error must be expected set NGZ to  50

 real space projection operators:
  total allocation   :   3526.66 KBytes
  max/ min on nodes  :   3526.66   3526.66


 parallel 3dFFT wavefunction:
    minimum data exchange during FFTs selected (reduces bandwidth)
 parallel 3dFFT charge:
    minimum data exchange during FFTs selected (reduces bandwidth)

 For storing wavefunctions  155.46 MBYTES are necessary
 For predicting wavefunctions   55.90 MBYTES are necessary
Broyden mixing: mesh for mixing (old mesh)
   NGX = 25   NGY = 25   NGZ = 25
  (NGX  = 80   NGY  = 80   NGZ  = 80)
 gives a total of  15625 points
 initial charge density was supplied:
 number of electron  256.9998089 magnetization 
 keeping initial charge density in first step


--------------------------------------------------------------------------------------------------------


 Maximum index for non-local projection operator         1908
 Maximum index for augmentation-charges          167 (set IRDMAX)


--------------------------------------------------------------------------------------------------------


 First call to EWALD:  gamma=   0.162
 Maximum number of real-space cells 3x 3x 3
 Maximum number of reciprocal cells 3x 3x 3

    FEWALD:  VPU time    0.02: CPU time    0.02


----------------------------------------- Iteration    1(   1)  ---------------------------------------


    POTLOK:  VPU time    0.08: CPU time    0.08
    SETDIJ:  VPU time    0.02: CPU time    0.02
    EDDIAG:  VPU time    1.70: CPU time    1.72
  RMM-DIIS:  VPU time    1.06: CPU time    1.06
    ORTHCH:  VPU time    1.13: CPU time    1.13
 BZINTS: Fermi energy:  6.339564;257.000000 electrons
         Band energy: 148.719446;  BLOECHL correction: -0.069311
    DOS   :  VPU time    0.00: CPU time    0.00
    CHARGE:  VPU time    0.13: CPU time    0.13
    MIXING:  VPU time    0.00: CPU time    0.00
    ------------------------------------------
      LOOP:  VPU time    4.15: CPU time    4.17

 eigenvalue-minimisations  :  2304
 total energy-change (2. order) :-0.3475850E+03  (-0.6783807E-01)
 number of electron  256.9998113 magnetization 
 augmentation part   -14.5589049 magnetization 

 Broyden mixing:
  rms(total) = 0.35437E-01    rms(broyden)= 0.35193E-01
  rms(prec ) = 0.46035E-01
  weight for this iteration     100.00

 Free energy of the ion-electron system (eV)
  ---------------------------------------------------
  alpha Z        PSCENC =       105.84895426
  Ewald energy   TEWEN  =     -7261.70386006
  -1/2 Hartree   DENC   =      -492.94921056
  -V(xc)+E(xc)   XCENC  =      -574.42541064
  PAW double counting   =      2407.81815739    -1288.80741327
  entropy T*S    EENTRO =         0.00000000
  eigenvalues    EBANDS =       148.71944591
  atomic energy  EATOM  =      6607.91429590
  ---------------------------------------------------
  free energy    TOTEN  =      -347.58504107 eV

  energy without entropy =     -347.58504107  energy(sigma->0) =     -347.58504107


--------------------------------------------------------------------------------------------------------




----------------------------------------- Iteration    1(   2)  ---------------------------------------


    POTLOK:  VPU time    0.08: CPU time    0.08
    SETDIJ:  VPU time    0.02: CPU time    0.02
    EDDIAG:  VPU time    1.70: CPU time    1.70
  RMM-DIIS:  VPU time    1.07: CPU time    1.07
    ORTHCH:  VPU time    1.13: CPU time    1.13
 BZINTS: Fermi energy:  6.339174;257.000000 electrons
         Band energy: 148.728926;  BLOECHL correction: -0.069228
    DOS   :  VPU time    0.00: CPU time    0.00
    CHARGE:  VPU time    0.13: CPU time    0.13
    MIXING:  VPU time    0.00: CPU time    0.00
    ------------------------------------------
      LOOP:  VPU time    4.15: CPU time    4.15

 eigenvalue-minimisations  :  2304
 total energy-change (2. order) : 0.2446217E-02  (-0.1036706E-02)
 number of electron  256.9998113 magnetization 
 augmentation part   -14.5588765 magnetization 

 Broyden mixing:
  rms(total) = 0.20162E-01    rms(broyden)= 0.20145E-01
  rms(prec ) = 0.25162E-01
  weight for this iteration     100.00

 eigenvalues of (default mixing * dielectric matrix)
  average eigenvalue GAMMA=   2.1990
  2.1990

 Free energy of the ion-electron system (eV)
  ---------------------------------------------------
  alpha Z        PSCENC =       105.84895426
  Ewald energy   TEWEN  =     -7261.70386006
  -1/2 Hartree   DENC   =      -492.95630636
  -V(xc)+E(xc)   XCENC  =      -574.42475234
  PAW double counting   =      2407.84829811    -1288.83815078
  entropy T*S    EENTRO =         0.00000000
  eigenvalues    EBANDS =       148.72892642
  atomic energy  EATOM  =      6607.91429590
  ---------------------------------------------------
  free energy    TOTEN  =      -347.58259485 eV

  energy without entropy =     -347.58259485  energy(sigma->0) =     -347.58259485


--------------------------------------------------------------------------------------------------------




----------------------------------------- Iteration    1(   3)  ---------------------------------------


    POTLOK:  VPU time    0.08: CPU time    0.08
    SETDIJ:  VPU time    0.02: CPU time    0.02
    EDDIAG:  VPU time    1.69: CPU time    1.69
  RMM-DIIS:  VPU time    1.05: CPU time    1.05
    ORTHCH:  VPU time    1.13: CPU time    1.13
 BZINTS: Fermi energy:  6.340106;257.000000 electrons
         Band energy: 148.752442;  BLOECHL correction: -0.069413
    DOS   :  VPU time    0.00: CPU time    0.00
    CHARGE:  VPU time    0.13: CPU time    0.13
    MIXING:  VPU time    0.00: CPU time    0.00
    ------------------------------------------
      LOOP:  VPU time    4.14: CPU time    4.14

 eigenvalue-minimisations  :  2305
 total energy-change (2. order) : 0.6375858E-03  (-0.2860360E-03)
 number of electron  256.9998113 magnetization 
 augmentation part   -14.5588398 magnetization 

 Broyden mixing:
  rms(total) = 0.36205E-02    rms(broyden)= 0.36107E-02
  rms(prec ) = 0.50395E-02
  weight for this iteration     100.00

 eigenvalues of (default mixing * dielectric matrix)
  average eigenvalue GAMMA=   1.7102
  2.0479  1.3725

 Free energy of the ion-electron system (eV)
  ---------------------------------------------------
  alpha Z        PSCENC =       105.84895426
  Ewald energy   TEWEN  =     -7261.70386006
  -1/2 Hartree   DENC   =      -492.98120680
  -V(xc)+E(xc)   XCENC  =      -574.42174045
  PAW double counting   =      2407.90050598    -1288.89134801
  entropy T*S    EENTRO =         0.00000000
  eigenvalues    EBANDS =       148.75244191
  atomic energy  EATOM  =      6607.91429590
  ---------------------------------------------------
  free energy    TOTEN  =      -347.58195726 eV

  energy without entropy =     -347.58195726  energy(sigma->0) =     -347.58195726


--------------------------------------------------------------------------------------------------------




----------------------------------------- Iteration    1(   4)  ---------------------------------------


    POTLOK:  VPU time    0.07: CPU time    0.08
    SETDIJ:  VPU time    0.02: CPU time    0.02
    EDDIAG:  VPU time    1.70: CPU time    1.70
  RMM-DIIS:  VPU time    1.06: CPU time    1.06
    ORTHCH:  VPU time    1.13: CPU time    1.13
 BZINTS: Fermi energy:  6.339707;257.000000 electrons
         Band energy: 148.751771;  BLOECHL correction: -0.069345
    DOS   :  VPU time    0.00: CPU time    0.00
    CHARGE:  VPU time    0.13: CPU time    0.13
    MIXING:  VPU time    0.00: CPU time    0.00
    ------------------------------------------
      LOOP:  VPU time    4.15: CPU time    4.15

 eigenvalue-minimisations  :  2308
 total energy-change (2. order) : 0.7973752E-04  (-0.1148242E-04)
 number of electron  256.9998113 magnetization 
 augmentation part   -14.5588369 magnetization 

 Broyden mixing:
  rms(total) = 0.17515E-02    rms(broyden)= 0.17506E-02
  rms(prec ) = 0.21741E-02
  weight for this iteration     100.00

 eigenvalues of (default mixing * dielectric matrix)
  average eigenvalue GAMMA=   1.7114
  2.4571  0.9975  1.6797

 Free energy of the ion-electron system (eV)
  ---------------------------------------------------
  alpha Z        PSCENC =       105.84895426
  Ewald energy   TEWEN  =     -7261.70386006
  -1/2 Hartree   DENC   =      -492.98051623
  -V(xc)+E(xc)   XCENC  =      -574.42173129
  PAW double counting   =      2407.89879339    -1288.88958454
  entropy T*S    EENTRO =         0.00000000
  eigenvalues    EBANDS =       148.75177103
  atomic energy  EATOM  =      6607.91429590
  ---------------------------------------------------
  free energy    TOTEN  =      -347.58187753 eV

  energy without entropy =     -347.58187753  energy(sigma->0) =     -347.58187753


--------------------------------------------------------------------------------------------------------




----------------------------------------- Iteration    1(   5)  ---------------------------------------


    POTLOK:  VPU time    0.08: CPU time    0.08
    SETDIJ:  VPU time    0.02: CPU time    0.02
    EDDIAG:  VPU time    1.69: CPU time    1.70
  RMM-DIIS:  VPU time    1.03: CPU time    1.03
    ORTHCH:  VPU time    1.13: CPU time    1.13
 BZINTS: Fermi energy:  6.339730;257.000000 electrons
         Band energy: 148.752684;  BLOECHL correction: -0.069350
    DOS   :  VPU time    0.00: CPU time    0.00
    CHARGE:  VPU time    0.13: CPU time    0.13
    MIXING:  VPU time    0.00: CPU time    0.00
    ------------------------------------------
      LOOP:  VPU time    4.12: CPU time    4.12

 eigenvalue-minimisations  :  2201
 total energy-change (2. order) :-0.1916629E-05  (-0.2118566E-05)
 number of electron  256.9998113 magnetization 
 augmentation part   -14.5588354 magnetization 

 Broyden mixing:
  rms(total) = 0.46754E-03    rms(broyden)= 0.46725E-03
  rms(prec ) = 0.64397E-03
  weight for this iteration     100.00

 eigenvalues of (default mixing * dielectric matrix)
  average eigenvalue GAMMA=   1.7032
  2.4713  1.6853  1.6853  0.9710

 Free energy of the ion-electron system (eV)
  ---------------------------------------------------
  alpha Z        PSCENC =       105.84895426
  Ewald energy   TEWEN  =     -7261.70386006
  -1/2 Hartree   DENC   =      -492.98155663
  -V(xc)+E(xc)   XCENC  =      -574.42156339
  PAW double counting   =      2407.90082437    -1288.89165797
  entropy T*S    EENTRO =         0.00000000
  eigenvalues    EBANDS =       148.75268406
  atomic energy  EATOM  =      6607.91429590
  ---------------------------------------------------
  free energy    TOTEN  =      -347.58187944 eV

  energy without entropy =     -347.58187944  energy(sigma->0) =     -347.58187944


--------------------------------------------------------------------------------------------------------




----------------------------------------- Iteration    1(   6)  ---------------------------------------


    POTLOK:  VPU time    0.08: CPU time    0.08
    SETDIJ:  VPU time    0.02: CPU time    0.02
    EDDIAG:  VPU time    1.70: CPU time    1.70
  RMM-DIIS:  VPU time    0.78: CPU time    0.78
    ORTHCH:  VPU time    1.12: CPU time    1.12
 BZINTS: Fermi energy:  6.339789;257.000000 electrons
         Band energy: 148.752897;  BLOECHL correction: -0.069359
    DOS   :  VPU time    0.00: CPU time    0.00
    CHARGE:  VPU time    0.13: CPU time    0.13
    MIXING:  VPU time    0.00: CPU time    0.00
    ------------------------------------------
      LOOP:  VPU time    3.87: CPU time    3.87

 eigenvalue-minimisations  :  1584
 total energy-change (2. order) :-0.5574259E-05  (-0.2341064E-06)
 number of electron  256.9998113 magnetization 
 augmentation part   -14.5588336 magnetization 

 Broyden mixing:
  rms(total) = 0.16808E-03    rms(broyden)= 0.16803E-03
  rms(prec ) = 0.26064E-03
  weight for this iteration     100.00

 eigenvalues of (default mixing * dielectric matrix)
  average eigenvalue GAMMA=   1.7382
  2.7083  2.2756  0.9752  1.3660  1.3660

 Free energy of the ion-electron system (eV)
  ---------------------------------------------------
  alpha Z        PSCENC =       105.84895426
  Ewald energy   TEWEN  =     -7261.70386006
  -1/2 Hartree   DENC   =      -492.98179727
  -V(xc)+E(xc)   XCENC  =      -574.42153123
  PAW double counting   =      2407.90123827    -1288.89208207
  entropy T*S    EENTRO =         0.00000000
  eigenvalues    EBANDS =       148.75289719
  atomic energy  EATOM  =      6607.91429590
  ---------------------------------------------------
  free energy    TOTEN  =      -347.58188502 eV

  energy without entropy =     -347.58188502  energy(sigma->0) =     -347.58188502


--------------------------------------------------------------------------------------------------------




----------------------------------------- Iteration    1(   7)  ---------------------------------------


    POTLOK:  VPU time    0.08: CPU time    0.08
    SETDIJ:  VPU time    0.02: CPU time    0.02
    EDDIAG:  VPU time    1.70: CPU time    1.70
  RMM-DIIS:  VPU time    0.76: CPU time    0.76
    ORTHCH:  VPU time    1.12: CPU time    1.12
 BZINTS: Fermi energy:  6.339750;257.000000 electrons
         Band energy: 148.752487;  BLOECHL correction: -0.069352
    DOS   :  VPU time    0.00: CPU time    0.00
    CHARGE:  VPU time    0.13: CPU time    0.13
    MIXING:  VPU time    0.00: CPU time    0.00
    ------------------------------------------
      LOOP:  VPU time    3.85: CPU time    3.85

 eigenvalue-minimisations  :  1470
 total energy-change (2. order) : 0.4794188E-05  (-0.9432232E-07)
 number of electron  256.9998113 magnetization 
 augmentation part   -14.5588342 magnetization 

 Broyden mixing:
  rms(total) = 0.85180E-04    rms(broyden)= 0.85147E-04
  rms(prec ) = 0.12928E-03
  weight for this iteration     100.00

 eigenvalues of (default mixing * dielectric matrix)
  average eigenvalue GAMMA=   1.6856
  2.5502  2.0463  2.0463  1.4459  1.0123  1.0123

 Free energy of the ion-electron system (eV)
  ---------------------------------------------------
  alpha Z        PSCENC =       105.84895426
  Ewald energy   TEWEN  =     -7261.70386006
  -1/2 Hartree   DENC   =      -492.98135899
  -V(xc)+E(xc)   XCENC  =      -574.42157416
  PAW double counting   =      2407.90030741    -1288.89113112
  entropy T*S    EENTRO =         0.00000000
  eigenvalues    EBANDS =       148.75248654
  atomic energy  EATOM  =      6607.91429590
  ---------------------------------------------------
  free energy    TOTEN  =      -347.58188022 eV

  energy without entropy =     -347.58188022  energy(sigma->0) =     -347.58188022


--------------------------------------------------------------------------------------------------------




----------------------------------------- Iteration    1(   8)  ---------------------------------------


    POTLOK:  VPU time    0.08: CPU time    0.08
    SETDIJ:  VPU time    0.02: CPU time    0.02
    EDDIAG:  VPU time    1.69: CPU time    1.69
  RMM-DIIS:  VPU time    0.67: CPU time    0.67
    ORTHCH:  VPU time    1.12: CPU time    1.12
 BZINTS: Fermi energy:  6.339761;257.000000 electrons
         Band energy: 148.752611;  BLOECHL correction: -0.069354
    DOS   :  VPU time    0.00: CPU time    0.00
    CHARGE:  VPU time    0.13: CPU time    0.13
    MIXING:  VPU time    0.00: CPU time    0.00
    ------------------------------------------
      LOOP:  VPU time    3.74: CPU time    3.75

 eigenvalue-minimisations  :  1023
 total energy-change (2. order) :-0.1359138E-05  (-0.1096991E-07)
 number of electron  256.9998113 magnetization 
 augmentation part   -14.5588338 magnetization 

 Broyden mixing:
  rms(total) = 0.20189E-04    rms(broyden)= 0.20185E-04
  rms(prec ) = 0.27957E-04
  weight for this iteration     100.00

 eigenvalues of (default mixing * dielectric matrix)
  average eigenvalue GAMMA=   1.6883
  2.7665  2.4843  2.0445  1.2514  1.2514  1.0099  1.0099

 Free energy of the ion-electron system (eV)
  ---------------------------------------------------
  alpha Z        PSCENC =       105.84895426
  Ewald energy   TEWEN  =     -7261.70386006
  -1/2 Hartree   DENC   =      -492.98149574
  -V(xc)+E(xc)   XCENC  =      -574.42155925
  PAW double counting   =      2407.90052932    -1288.89135709
  entropy T*S    EENTRO =         0.00000000
  eigenvalues    EBANDS =       148.75261107
  atomic energy  EATOM  =      6607.91429590
  ---------------------------------------------------
  free energy    TOTEN  =      -347.58188158 eV

  energy without entropy =     -347.58188158  energy(sigma->0) =     -347.58188158


--------------------------------------------------------------------------------------------------------




----------------------------------------- Iteration    1(   9)  ---------------------------------------


    POTLOK:  VPU time    0.08: CPU time    0.08
    SETDIJ:  VPU time    0.02: CPU time    0.02
    EDDIAG:  VPU time    1.70: CPU time    1.70
  RMM-DIIS:  VPU time    0.61: CPU time    0.61
    ORTHCH:  VPU time    1.13: CPU time    1.13
 BZINTS: Fermi energy:  6.339764;257.000000 electrons
         Band energy: 148.752612;  BLOECHL correction: -0.069354
    DOS   :  VPU time    0.00: CPU time    0.00
    ------------------------------------------
      LOOP:  VPU time    3.56: CPU time    3.56

 eigenvalue-minimisations  :   711
 total energy-change (2. order) :-0.3259120E-06  (-0.2085957E-08)
 number of electron  256.9998113 magnetization 
 augmentation part   -14.5588338 magnetization 

 Free energy of the ion-electron system (eV)
  ---------------------------------------------------
  alpha Z        PSCENC =       105.84895426
  Ewald energy   TEWEN  =     -7261.70386006
  -1/2 Hartree   DENC   =      -492.98149860
  -V(xc)+E(xc)   XCENC  =      -574.42155865
  PAW double counting   =      2407.90051354    -1288.89134071
  entropy T*S    EENTRO =         0.00000000
  eigenvalues    EBANDS =       148.75261242
  atomic energy  EATOM  =      6607.91429590
  ---------------------------------------------------
  free energy    TOTEN  =      -347.58188191 eV

  energy without entropy =     -347.58188191  energy(sigma->0) =     -347.58188191


--------------------------------------------------------------------------------------------------------




 average (electrostatic) potential at core
  the test charge radii are     0.9892  0.5201
  (the norm of the test charge is              1.0000)
       1 -83.8022       2 -83.5640       3 -83.5640       4 -83.5640       5 -83.8837
       6 -83.5052       7 -83.5052       8 -83.5052       9 -83.5223      10 -83.5194
      11 -83.5548      12 -83.5548      13 -83.5223      14 -83.5005      15 -83.5551
      16 -83.5551      17 -83.5223      18 -83.5548      19 -83.5194      20 -83.5548
      21 -83.5223      22 -83.5551      23 -83.5005      24 -83.5551      25 -83.4562
      26 -83.5124      27 -83.5124      28 -83.4963      29 -83.4559      30 -83.5125
      31 -83.5125      32 -83.5508      33 -83.5223      34 -83.5548      35 -83.5548
      36 -83.5194      37 -83.5223      38 -83.5551      39 -83.5551      40 -83.5005
      41 -83.4562      42 -83.5124      43 -83.4963      44 -83.5124      45 -83.4559
      46 -83.5125      47 -83.5508      48 -83.5125      49 -83.4562      50 -83.4963
      51 -83.5124      52 -83.5124      53 -83.4559      54 -83.5508      55 -83.5125
      56 -83.5125      57 -83.4962      58 -83.4996      59 -83.4996      60 -83.4996
      61 -83.4961      62 -83.5182      63 -83.5182      64 -83.5182      65 -32.1803
 
 
 
 E-fermi :   6.3398     XC(G=0):  -9.3242     alpha+bet :-11.7061
   add alpha+bet to get absolut eigen values

 k-point   1 :       0.0000    0.0000    0.0000
  band No.  band energies     occupation 
      1      -6.2522      2.00000
      2      -5.2577      2.00000
      3      -5.2464      2.00000
      4      -5.1685      2.00000
      5      -5.1685      2.00000
      6      -5.1657      2.00000
      7      -5.1657      2.00000
      8      -4.4064      2.00000
      9      -4.3491      2.00000
     10      -4.2513      2.00000
     11      -4.2513      2.00000
     12      -4.2488      2.00000
     13      -4.2488      2.00000
     14      -4.2223      2.00000
     15      -4.2223      2.00000
     16      -4.2205      2.00000
     17      -4.2142      2.00000
     18      -4.2050      2.00000
     19      -4.2050      2.00000
     20      -3.9768      2.00000
     21      -3.9600      2.00000
     22      -3.9600      2.00000
     23      -3.9478      2.00000
     24      -2.3690      2.00000
     25      -2.3068      2.00000
     26      -2.1983      2.00000
     27      -2.1983      2.00000
     28      -2.1564      2.00000
     29      -2.1564      2.00000
     30      -2.0805      2.00000
     31      -2.0516      2.00000
     32      -2.0516      2.00000
     33      -2.0380      2.00000
     34      -2.0221      2.00000
     35      -2.0221      2.00000
     36      -2.0147      2.00000
     37      -2.0045      2.00000
     38      -2.0045      2.00000
     39      -1.9989      2.00000
     40      -1.9965      2.00000
     41      -1.9965      2.00000
     42      -1.3660      2.00000
     43      -1.3561      2.00000
     44      -1.2641      2.00000
     45      -1.2641      2.00000
     46      -0.0894      2.00000
     47       0.0285      2.00000
     48       0.1077      2.00000
     49       0.1077      2.00000
     50       0.1280      2.00000
     51       0.1280      2.00000
     52       0.1331      2.00000
     53       0.1342      2.00000
     54       0.1451      2.00000
     55       0.1451      2.00000
     56       0.1585      2.00000
     57       0.1585      2.00000
     58       1.0281      2.00000
     59       1.7459      2.00000
     60       1.7459      2.00000
     61       1.7639      2.00000
     62       1.7639      2.00000
     63       1.8089      2.00000
     64       1.8102      2.00000
     65       1.8114      2.00000
     66       1.8315      2.00000
     67       1.8315      2.00000
     68       1.8822      2.00000
     69       1.8850      2.00000
     70       1.8850      2.00000
     71       1.8889      2.00000
     72       1.8889      2.00000
     73       1.8950      2.00000
     74       1.9148      2.00000
     75       1.9148      2.00000
     76       1.9172      2.00000
     77       1.9172      2.00000
     78       1.9198      2.00000
     79       1.9227      2.00000
     80       1.9959      2.00000
     81       2.0325      2.00000
     82       2.0325      2.00000
     83       2.0362      2.00000
     84       2.0362      2.00000
     85       2.0439      2.00000
     86       2.1088      2.00000
     87       2.1088      2.00000
     88       2.7039      2.00000
     89       2.7603      2.00000
     90       2.7603      2.00000
     91       2.8014      2.00000
     92       2.8101      2.00000
     93       2.8101      2.00000
     94       3.5273      2.00000
     95       3.6680      2.00000
     96       3.6680      2.00000
     97       3.6823      2.00000
     98       3.6823      2.00000
     99       3.6962      2.00000
    100       3.7400      2.00000
    101       3.7411      2.00000
    102       3.7640      2.00000
    103       3.7640      2.00000
    104       3.7694      2.00000
    105       3.7694      2.00000
    106       4.1204      2.00000
    107       4.2174      2.00000
    108       4.2174      2.00000
    109       4.2301      2.00000
    110       4.2301      2.00000
    111       4.2634      2.00000
    112       4.2869      2.00000
    113       4.2881      2.00000
    114       4.3143      2.00000
    115       4.3143      2.00000
    116       4.3397      2.00000
    117       4.3397      2.00000
    118       4.3721      2.00000
    119       4.3721      2.00000
    120       4.3867      2.00000
    121       4.3964      2.00000
    122       4.3964      2.00000
    123       4.4208      2.00000
    124       4.4342      2.00000
    125       4.4342      2.00000
    126       5.5516      2.00000
    127       5.5714      2.00000
    128       5.5714      2.00000
    129       5.9726      2.15184
    130       6.2262      1.31756
    131       6.3733      0.00000
    132       6.3733      0.00000
    133       6.4084      0.00000
    134       6.4084      0.00000
    135       6.5729      0.00000
    136       6.7379      0.00000
    137       6.7379      0.00000
    138       6.7568      0.00000
    139       6.8233      0.00000
    140       6.8233      0.00000
    141       6.9505      0.00000
    142       6.9852      0.00000
    143       7.0696      0.00000
    144       7.0696      0.00000
    145       7.6812      0.00000
    146       7.9623      0.00000
    147       8.0145      0.00000
    148       8.0145      0.00000
    149       8.0171      0.00000
    150       8.0171      0.00000
    151       8.0204      0.00000
    152       8.0356      0.00000
    153       8.0520      0.00000
    154       8.0520      0.00000
    155       8.1140      0.00000
    156       8.1140      0.00000
    157       8.1560      0.00000
    158       8.2163      0.00000
    159       8.2163      0.00000
    160       8.5727      0.00000
    161       8.5999      0.00000
    162       8.7235      0.00000
    163       8.7686      0.00000
    164       8.7686      0.00000
    165       8.7747      0.00000
    166       8.7747      0.00000
    167       8.8527      0.00000
    168       8.9526      0.00000
    169       8.9578      0.00000
    170       8.9578      0.00000
    171       8.9738      0.00000
    172       8.9738      0.00000
    173       9.0703      0.00000
    174       9.0703      0.00000
    175       9.6545      0.00000
    176       9.6912      0.00000
    177       9.8378      0.00000
    178       9.8378      0.00000
    179       9.9071      0.00000
    180       9.9071      0.00000
    181       9.9106      0.00000
    182       9.9106      0.00000
    183       9.9202      0.00000
    184       9.9224      0.00000
    185       9.9224      0.00000
    186       9.9250      0.00000
    187      10.1220      0.00000
    188      10.2908      0.00000
    189      10.2908      0.00000
    190      10.3549      0.00000
    191      10.3555      0.00000
    192      10.3730      0.00000

 k-point   2 :       0.3333    0.0000    0.0000
  band No.  band energies     occupation 
      1      -6.1349      2.00000
      2      -5.7785      2.00000
      3      -5.1293      2.00000
      4      -5.1199      2.00000
      5      -5.0609      2.00000
      6      -5.0584      2.00000
      7      -4.7892      2.00000
      8      -4.7783      2.00000
      9      -4.7415      2.00000
     10      -4.7400      2.00000
     11      -4.4030      2.00000
     12      -4.2417      2.00000
     13      -4.1993      2.00000
     14      -4.1774      2.00000
     15      -4.1737      2.00000
     16      -4.0612      2.00000
     17      -4.0419      2.00000
     18      -4.0414      2.00000
     19      -4.0313      2.00000
     20      -3.6068      2.00000
     21      -3.5821      2.00000
     22      -3.5583      2.00000
     23      -3.5547      2.00000
     24      -3.3820      2.00000
     25      -2.8669      2.00000
     26      -2.8120      2.00000
     27      -2.7954      2.00000
     28      -2.7868      2.00000
     29      -2.2471      2.00000
     30      -2.2026      2.00000
     31      -2.1556      2.00000
     32      -2.1215      2.00000
     33      -2.0742      2.00000
     34      -2.0688      2.00000
     35      -2.0507      2.00000
     36      -2.0441      2.00000
     37      -1.4072      2.00000
     38      -1.3191      2.00000
     39      -1.2991      2.00000
     40      -1.2801      2.00000
     41      -1.1094      2.00000
     42      -1.0859      2.00000
     43      -1.0011      2.00000
     44      -0.9978      2.00000
     45      -0.8577      2.00000
     46      -0.6617      2.00000
     47      -0.6151      2.00000
     48      -0.6040      2.00000
     49      -0.5819      2.00000
     50      -0.4132      2.00000
     51      -0.3980      2.00000
     52      -0.3580      2.00000
     53      -0.3495      2.00000
     54       0.5404      2.00000
     55       0.7718      2.00000
     56       0.8823      2.00000
     57       0.8925      2.00000
     58       0.9261      2.00000
     59       1.0728      2.00000
     60       1.4355      2.00000
     61       1.4761      2.00000
     62       1.4874      2.00000
     63       1.4957      2.00000
     64       1.5018      2.00000
     65       1.5566      2.00000
     66       1.5763      2.00000
     67       1.6117      2.00000
     68       1.6457      2.00000
     69       1.6552      2.00000
     70       1.6778      2.00000
     71       1.8946      2.00000
     72       2.0042      2.00000
     73       2.0163      2.00000
     74       2.0662      2.00000
     75       2.2814      2.00000
     76       2.4474      2.00000
     77       2.4685      2.00000
     78       2.4868      2.00000
     79       2.5119      2.00000
     80       2.5194      2.00000
     81       2.5216      2.00000
     82       2.5580      2.00000
     83       2.5600      2.00000
     84       2.5612      2.00000
     85       2.5700      2.00000
     86       2.5881      2.00000
     87       2.5900      2.00000
     88       2.5907      2.00000
     89       2.6642      2.00000
     90       2.6675      2.00000
     91       2.8832      2.00000
     92       2.8940      2.00000
     93       3.1338      2.00000
     94       3.1973      2.00000
     95       3.2633      2.00000
     96       3.2789      2.00000
     97       3.3186      2.00000
     98       3.3211      2.00000
     99       3.4586      2.00000
    100       3.4946      2.00000
    101       3.5401      2.00000
    102       3.5559      2.00000
    103       3.5815      2.00000
    104       3.6905      2.00000
    105       3.7114      2.00000
    106       3.7263      2.00000
    107       3.7572      2.00000
    108       3.9371      2.00000
    109       3.9569      2.00000
    110       3.9940      2.00000
    111       4.0107      2.00000
    112       4.2132      2.00000
    113       4.2269      2.00000
    114       4.2648      2.00000
    115       4.3118      2.00000
    116       4.3139      2.00000
    117       4.3258      2.00000
    118       4.3367      2.00000
    119       4.3464      2.00000
    120       4.3560      2.00000
    121       4.3776      2.00000
    122       4.3792      2.00000
    123       4.4051      2.00000
    124       4.4224      2.00000
    125       4.4702      2.00000
    126       4.8531      2.00000
    127       5.1425      2.00000
    128       5.1595      2.00000
    129       6.1308      2.32604
    130       6.2821      0.55451
    131       6.6434      0.00000
    132       6.8019      0.00000
    133       6.9382      0.00000
    134       6.9587      0.00000
    135       7.0045      0.00000
    136       7.1574      0.00000
    137       7.3354      0.00000
    138       7.3774      0.00000
    139       7.3941      0.00000
    140       7.4524      0.00000
    141       7.4810      0.00000
    142       7.5226      0.00000
    143       7.5855      0.00000
    144       7.6002      0.00000
    145       7.6375      0.00000
    146       7.8309      0.00000
    147       7.9227      0.00000
    148       7.9691      0.00000
    149       8.0033      0.00000
    150       8.0204      0.00000
    151       8.0932      0.00000
    152       8.1305      0.00000
    153       8.1488      0.00000
    154       8.1793      0.00000
    155       8.3120      0.00000
    156       8.3577      0.00000
    157       8.3690      0.00000
    158       8.4059      0.00000
    159       8.6080      0.00000
    160       8.7202      0.00000
    161       8.7226      0.00000
    162       8.7721      0.00000
    163       8.7728      0.00000
    164       8.8216      0.00000
    165       8.8234      0.00000
    166       8.8477      0.00000
    167       8.8834      0.00000
    168       8.9170      0.00000
    169       8.9218      0.00000
    170       8.9303      0.00000
    171       8.9333      0.00000
    172       8.9721      0.00000
    173       8.9908      0.00000
    174       8.9968      0.00000
    175       9.0231      0.00000
    176       9.0536      0.00000
    177       9.0631      0.00000
    178       9.1310      0.00000
    179       9.1323      0.00000
    180       9.1427      0.00000
    181       9.1854      0.00000
    182       9.2078      0.00000
    183       9.2104      0.00000
    184       9.2932      0.00000
    185       9.3674      0.00000
    186       9.6268      0.00000
    187       9.6483      0.00000
    188       9.7013      0.00000
    189       9.7134      0.00000
    190       9.7769      0.00000
    191       9.8017      0.00000
    192       9.8133      0.00000

 k-point   3 :       0.3333    0.3333    0.0000
  band No.  band energies     occupation 
      1      -6.0184      2.00000
      2      -5.6926      2.00000
      3      -5.6379      2.00000
      4      -5.3225      2.00000
      5      -4.9903      2.00000
      6      -4.9818      2.00000
      7      -4.7219      2.00000
      8      -4.6838      2.00000
      9      -4.6632      2.00000
     10      -4.6366      2.00000
     11      -4.4247      2.00000
     12      -4.4074      2.00000
     13      -4.3008      2.00000
     14      -4.2664      2.00000
     15      -4.0438      2.00000
     16      -3.9907      2.00000
     17      -3.7565      2.00000
     18      -3.7315      2.00000
     19      -3.6205      2.00000
     20      -3.6002      2.00000
     21      -3.5822      2.00000
     22      -3.5710      2.00000
     23      -3.3482      2.00000
     24      -3.2832      2.00000
     25      -3.1140      2.00000
     26      -3.0711      2.00000
     27      -3.0580      2.00000
     28      -3.0378      2.00000
     29      -3.0366      2.00000
     30      -2.5889      2.00000
     31      -2.5208      2.00000
     32      -2.3233      2.00000
     33      -1.9537      2.00000
     34      -1.6601      2.00000
     35      -1.6133      2.00000
     36      -1.3128      2.00000
     37      -1.2518      2.00000
     38      -1.2012      2.00000
     39      -1.1835      2.00000
     40      -1.1656      2.00000
     41      -1.1190      2.00000
     42      -1.0301      2.00000
     43      -0.9702      2.00000
     44      -0.9115      2.00000
     45      -0.9031      2.00000
     46      -0.8874      2.00000
     47      -0.8818      2.00000
     48      -0.8742      2.00000
     49      -0.4886      2.00000
     50      -0.4501      2.00000
     51      -0.0581      2.00000
     52      -0.0340      2.00000
     53       0.2980      2.00000
     54       0.3225      2.00000
     55       0.3476      2.00000
     56       0.3669      2.00000
     57       0.3748      2.00000
     58       0.4116      2.00000
     59       0.9654      2.00000
     60       1.1471      2.00000
     61       1.2170      2.00000
     62       1.3868      2.00000
     63       1.4289      2.00000
     64       1.4975      2.00000
     65       1.6581      2.00000
     66       1.7911      2.00000
     67       1.8592      2.00000
     68       1.8847      2.00000
     69       1.8979      2.00000
     70       1.9951      2.00000
     71       2.0356      2.00000
     72       2.0439      2.00000
     73       2.0642      2.00000
     74       2.0681      2.00000
     75       2.1493      2.00000
     76       2.4076      2.00000
     77       2.4722      2.00000
     78       2.4885      2.00000
     79       2.5610      2.00000
     80       2.6130      2.00000
     81       2.7064      2.00000
     82       2.7522      2.00000
     83       2.7964      2.00000
     84       2.8062      2.00000
     85       2.8324      2.00000
     86       2.8588      2.00000
     87       2.8649      2.00000
     88       2.8824      2.00000
     89       2.9086      2.00000
     90       2.9716      2.00000
     91       3.0079      2.00000
     92       3.0104      2.00000
     93       3.1306      2.00000
     94       3.1586      2.00000
     95       3.1756      2.00000
     96       3.2000      2.00000
     97       3.2071      2.00000
     98       3.2073      2.00000
     99       3.2405      2.00000
    100       3.3447      2.00000
    101       3.3553      2.00000
    102       3.5030      2.00000
    103       3.5364      2.00000
    104       3.5983      2.00000
    105       3.6368      2.00000
    106       3.6503      2.00000
    107       3.6746      2.00000
    108       3.6747      2.00000
    109       3.8505      2.00000
    110       3.8699      2.00000
    111       3.8824      2.00000
    112       3.9431      2.00000
    113       3.9695      2.00000
    114       3.9875      2.00000
    115       4.0050      2.00000
    116       4.0375      2.00000
    117       4.0543      2.00000
    118       4.1748      2.00000
    119       4.2159      2.00000
    120       4.2679      2.00000
    121       4.2963      2.00000
    122       4.3123      2.00000
    123       4.3173      2.00000
    124       4.7303      2.00000
    125       4.8510      2.00000
    126       4.8802      2.00000
    127       5.0210      2.00000
    128       5.4543      2.00000
    129       6.4799      0.11899
    130       6.5835     -0.07175
    131       6.8577      0.00000
    132       6.8840      0.00000
    133       7.0502      0.00000
    134       7.1358      0.00000
    135       7.2129      0.00000
    136       7.3016      0.00000
    137       7.3623      0.00000
    138       7.4265      0.00000
    139       7.5239      0.00000
    140       7.5546      0.00000
    141       7.6000      0.00000
    142       7.6416      0.00000
    143       7.7343      0.00000
    144       7.9225      0.00000
    145       7.9250      0.00000
    146       8.0872      0.00000
    147       8.0900      0.00000
    148       8.1091      0.00000
    149       8.1325      0.00000
    150       8.1717      0.00000
    151       8.1773      0.00000
    152       8.1836      0.00000
    153       8.1917      0.00000
    154       8.2198      0.00000
    155       8.2218      0.00000
    156       8.2524      0.00000
    157       8.2729      0.00000
    158       8.3141      0.00000
    159       8.3228      0.00000
    160       8.4177      0.00000
    161       8.4553      0.00000
    162       8.4626      0.00000
    163       8.4830      0.00000
    164       8.5253      0.00000
    165       8.5600      0.00000
    166       8.6758      0.00000
    167       8.6848      0.00000
    168       8.6994      0.00000
    169       8.7801      0.00000
    170       8.8274      0.00000
    171       8.8569      0.00000
    172       8.9233      0.00000
    173       8.9366      0.00000
    174       8.9671      0.00000
    175       8.9697      0.00000
    176       9.0085      0.00000
    177       9.0238      0.00000
    178       9.0649      0.00000
    179       9.0681      0.00000
    180       9.1291      0.00000
    181       9.1810      0.00000
    182       9.1836      0.00000
    183       9.1956      0.00000
    184       9.3009      0.00000
    185       9.3055      0.00000
    186       9.3484      0.00000
    187       9.3501      0.00000
    188       9.4121      0.00000
    189       9.4631      0.00000
    190       9.5036      0.00000
    191       9.5688      0.00000
    192       9.5801      0.00000

 k-point   4 :      -0.3333    0.3333    0.0000
  band No.  band energies     occupation 
      1      -6.0195      2.00000
      2      -5.6683      2.00000
      3      -5.6608      2.00000
      4      -5.3245      2.00000
      5      -4.9893      2.00000
      6      -4.9842      2.00000
      7      -4.7053      2.00000
      8      -4.6973      2.00000
      9      -4.6558      2.00000
     10      -4.6408      2.00000
     11      -4.4260      2.00000
     12      -4.4060      2.00000
     13      -4.2946      2.00000
     14      -4.2863      2.00000
     15      -4.0203      2.00000
     16      -3.9975      2.00000
     17      -3.7588      2.00000
     18      -3.7242      2.00000
     19      -3.6199      2.00000
     20      -3.6051      2.00000
     21      -3.5881      2.00000
     22      -3.5833      2.00000
     23      -3.3197      2.00000
     24      -3.2945      2.00000
     25      -3.1191      2.00000
     26      -3.0900      2.00000
     27      -3.0596      2.00000
     28      -3.0395      2.00000
     29      -3.0269      2.00000
     30      -2.5515      2.00000
     31      -2.5148      2.00000
     32      -2.3512      2.00000
     33      -1.9251      2.00000
     34      -1.7012      2.00000
     35      -1.6377      2.00000
     36      -1.3442      2.00000
     37      -1.2843      2.00000
     38      -1.2163      2.00000
     39      -1.1879      2.00000
     40      -1.1289      2.00000
     41      -1.0557      2.00000
     42      -1.0276      2.00000
     43      -0.9263      2.00000
     44      -0.9173      2.00000
     45      -0.8972      2.00000
     46      -0.8932      2.00000
     47      -0.8904      2.00000
     48      -0.8560      2.00000
     49      -0.4654      2.00000
     50      -0.4366      2.00000
     51      -0.1124      2.00000
     52      -0.0554      2.00000
     53       0.2284      2.00000
     54       0.3368      2.00000
     55       0.3495      2.00000
     56       0.3684      2.00000
     57       0.3938      2.00000
     58       0.4139      2.00000
     59       1.0530      2.00000
     60       1.1527      2.00000
     61       1.1790      2.00000
     62       1.2887      2.00000
     63       1.4818      2.00000
     64       1.5916      2.00000
     65       1.6510      2.00000
     66       1.8106      2.00000
     67       1.8234      2.00000
     68       1.8518      2.00000
     69       1.8778      2.00000
     70       1.9196      2.00000
     71       2.0422      2.00000
     72       2.0755      2.00000
     73       2.0779      2.00000
     74       2.0844      2.00000
     75       2.1339      2.00000
     76       2.3762      2.00000
     77       2.4982      2.00000
     78       2.5066      2.00000
     79       2.5835      2.00000
     80       2.6856      2.00000
     81       2.6912      2.00000
     82       2.7497      2.00000
     83       2.7856      2.00000
     84       2.7870      2.00000
     85       2.8327      2.00000
     86       2.8415      2.00000
     87       2.8577      2.00000
     88       2.8782      2.00000
     89       2.9311      2.00000
     90       2.9702      2.00000
     91       3.0039      2.00000
     92       3.0074      2.00000
     93       3.1039      2.00000
     94       3.1630      2.00000
     95       3.1695      2.00000
     96       3.1909      2.00000
     97       3.1986      2.00000
     98       3.2313      2.00000
     99       3.2652      2.00000
    100       3.3229      2.00000
    101       3.3571      2.00000
    102       3.4949      2.00000
    103       3.5532      2.00000
    104       3.5951      2.00000
    105       3.6370      2.00000
    106       3.6480      2.00000
    107       3.6790      2.00000
    108       3.6985      2.00000
    109       3.8348      2.00000
    110       3.8507      2.00000
    111       3.9434      2.00000
    112       3.9456      2.00000
    113       3.9724      2.00000
    114       3.9768      2.00000
    115       4.0000      2.00000
    116       4.0263      2.00000
    117       4.0375      2.00000
    118       4.1769      2.00000
    119       4.1861      2.00000
    120       4.2793      2.00000
    121       4.2859      2.00000
    122       4.2986      2.00000
    123       4.3310      2.00000
    124       4.7362      2.00000
    125       4.8600      2.00000
    126       4.8805      2.00000
    127       5.0200      2.00000
    128       5.4416      2.00000
    129       6.3642      0.66473
    130       6.7241     -0.13084
    131       6.8243      0.00000
    132       6.9116      0.00000
    133       7.0337      0.00000
    134       7.1521      0.00000
    135       7.2824      0.00000
    136       7.2986      0.00000
    137       7.3463      0.00000
    138       7.3677      0.00000
    139       7.5140      0.00000
    140       7.5426      0.00000
    141       7.6129      0.00000
    142       7.6340      0.00000
    143       7.8893      0.00000
    144       7.9254      0.00000
    145       7.9512      0.00000
    146       8.0205      0.00000
    147       8.0705      0.00000
    148       8.0846      0.00000
    149       8.1350      0.00000
    150       8.1400      0.00000
    151       8.1677      0.00000
    152       8.1979      0.00000
    153       8.2007      0.00000
    154       8.2068      0.00000
    155       8.2229      0.00000
    156       8.2422      0.00000
    157       8.2920      0.00000
    158       8.3051      0.00000
    159       8.3103      0.00000
    160       8.3702      0.00000
    161       8.4376      0.00000
    162       8.4584      0.00000
    163       8.4763      0.00000
    164       8.5601      0.00000
    165       8.5692      0.00000
    166       8.6790      0.00000
    167       8.6810      0.00000
    168       8.7409      0.00000
    169       8.8016      0.00000
    170       8.8145      0.00000
    171       8.8960      0.00000
    172       8.9053      0.00000
    173       8.9403      0.00000
    174       8.9581      0.00000
    175       8.9912      0.00000
    176       9.0197      0.00000
    177       9.0215      0.00000
    178       9.0493      0.00000
    179       9.0623      0.00000
    180       9.1024      0.00000
    181       9.1299      0.00000
    182       9.1377      0.00000
    183      10.0696      0.00000
    184      11.3373      0.00000
    185      11.3449      0.00000
    186      11.5907      0.00000
    187      11.9436      0.00000
    188      12.0765      0.00000
    189      12.2677      0.00000
    190      12.2736      0.00000
    191      12.5899      0.00000
    192      12.7463      0.00000

 k-point   5 :       0.3333    0.3333    0.3333
  band No.  band energies     occupation 
      1      -5.9028      2.00000
      2      -5.6118      2.00000
      3      -5.5255      2.00000
      4      -5.5255      2.00000
      5      -5.2543      2.00000
      6      -5.1914      2.00000
      7      -5.1914      2.00000
      8      -4.8975      2.00000
      9      -4.2919      2.00000
     10      -4.1787      2.00000
     11      -4.1787      2.00000
     12      -4.0738      2.00000
     13      -3.9403      2.00000
     14      -3.9403      2.00000
     15      -3.9368      2.00000
     16      -3.9368      2.00000
     17      -3.9210      2.00000
     18      -3.8042      2.00000
     19      -3.7976      2.00000
     20      -3.7976      2.00000
     21      -3.4167      2.00000
     22      -3.2556      2.00000
     23      -3.2556      2.00000
     24      -3.2502      2.00000
     25      -3.2321      2.00000
     26      -3.2321      2.00000
     27      -3.1305      2.00000
     28      -3.1142      2.00000
     29      -3.1142      2.00000
     30      -3.0975      2.00000
     31      -3.0975      2.00000
     32      -3.0935      2.00000
     33      -1.4478      2.00000
     34      -1.2272      2.00000
     35      -1.1814      2.00000
     36      -1.1814      2.00000
     37      -1.1086      2.00000
     38      -1.1086      2.00000
     39      -1.0965      2.00000
     40      -1.0821      2.00000
     41      -1.0821      2.00000
     42      -1.0042      2.00000
     43      -0.9409      2.00000
     44      -0.9405      2.00000
     45      -0.9405      2.00000
     46      -0.9239      2.00000
     47      -0.9239      2.00000
     48      -0.5134      2.00000
     49      -0.3888      2.00000
     50      -0.3850      2.00000
     51      -0.3850      2.00000
     52      -0.3790      2.00000
     53      -0.3790      2.00000
     54      -0.0053      2.00000
     55       0.1458      2.00000
     56       0.1458      2.00000
     57       0.2807      2.00000
     58       1.1308      2.00000
     59       1.2100      2.00000
     60       1.2100      2.00000
     61       1.2951      2.00000
     62       1.6940      2.00000
     63       1.6940      2.00000
     64       1.7068      2.00000
     65       1.7383      2.00000
     66       1.7383      2.00000
     67       1.7566      2.00000
     68       1.7774      2.00000
     69       1.7774      2.00000
     70       1.9052      2.00000
     71       2.0556      2.00000
     72       2.0556      2.00000
     73       2.1410      2.00000
     74       2.1824      2.00000
     75       2.1824      2.00000
     76       2.3657      2.00000
     77       2.3657      2.00000
     78       2.4176      2.00000
     79       2.4188      2.00000
     80       2.4464      2.00000
     81       2.4464      2.00000
     82       2.5023      2.00000
     83       2.6631      2.00000
     84       2.6631      2.00000
     85       2.6881      2.00000
     86       2.8675      2.00000
     87       2.8675      2.00000
     88       2.9442      2.00000
     89       2.9733      2.00000
     90       2.9733      2.00000
     91       3.0082      2.00000
     92       3.0582      2.00000
     93       3.0582      2.00000
     94       3.0852      2.00000
     95       3.0852      2.00000
     96       3.0949      2.00000
     97       3.1699      2.00000
     98       3.3463      2.00000
     99       3.3463      2.00000
    100       3.3729      2.00000
    101       3.3866      2.00000
    102       3.4904      2.00000
    103       3.5079      2.00000
    104       3.5079      2.00000
    105       3.5225      2.00000
    106       3.5225      2.00000
    107       3.6104      2.00000
    108       3.6282      2.00000
    109       3.6282      2.00000
    110       3.8227      2.00000
    111       3.8227      2.00000
    112       3.8482      2.00000
    113       3.8588      2.00000
    114       3.9316      2.00000
    115       3.9316      2.00000
    116       4.4807      2.00000
    117       4.4807      2.00000
    118       4.5087      2.00000
    119       4.5765      2.00000
    120       4.5765      2.00000
    121       4.5832      2.00000
    122       4.6936      2.00000
    123       4.6936      2.00000
    124       4.8941      2.00000
    125       4.8941      2.00000
    126       4.9199      2.00000
    127       5.1370      2.00000
    128       5.1370      2.00000
    129       6.4659      0.02895
    130       6.7138     -0.04030
    131       6.7138      0.00000
    132       6.7750      0.00000
    133       6.9845      0.00000
    134       7.0532      0.00000
    135       7.0532      0.00000
    136       7.2396      0.00000
    137       7.2709      0.00000
    138       7.3110      0.00000
    139       7.3110      0.00000
    140       7.4917      0.00000
    141       7.4922      0.00000
    142       7.4922      0.00000
    143       7.5717      0.00000
    144       7.5717      0.00000
    145       7.5939      0.00000
    146       7.6548      0.00000
    147       7.6548      0.00000
    148       7.6887      0.00000
    149       7.8294      0.00000
    150       7.8418      0.00000
    151       7.8448      0.00000
    152       7.8448      0.00000
    153       7.8808      0.00000
    154       7.8808      0.00000
    155       7.9087      0.00000
    156       7.9806      0.00000
    157       7.9806      0.00000
    158       8.0125      0.00000
    159       8.0900      0.00000
    160       8.0900      0.00000
    161       8.2428      0.00000
    162       8.3809      0.00000
    163       8.3809      0.00000
    164       8.5433      0.00000
    165       8.7662      0.00000
    166       8.7662      0.00000
    167       8.7777      0.00000
    168       8.7777      0.00000
    169       8.8422      0.00000
    170       8.9020      0.00000
    171       8.9020      0.00000
    172       9.0632      0.00000
    173       9.1128      0.00000
    174       9.1128      0.00000
    175       9.1567      0.00000
    176       9.1567      0.00000
    177       9.2230      0.00000
    178       9.3366      0.00000
    179       9.3366      0.00000
    180       9.4768      0.00000
[...]
    191      11.6036      0.00000
    192      11.8128      0.00000


--------------------------------------------------------------------------------------------------------


 soft charge-density along one line, spin component           1
         0         1         2         3         4         5         6         7         8         9
 total charge-density along one line
 
 pseudopotential strength for first ion, spin component:           1
 18.483  -0.001   0.001   0.001   0.001   0.000   0.000   0.000
 -0.001   0.006   0.000   0.000   0.000   0.000   0.000   0.000
  0.001   0.000   4.188   0.002   0.002  -0.004   0.000   0.000
  0.001   0.000   0.002   4.188   0.002   0.000  -0.004   0.000
  0.001   0.000   0.002   0.002   4.188   0.000   0.000  -0.004
  0.000   0.000  -0.004   0.000   0.000   0.005   0.000   0.000
  0.000   0.000   0.000  -0.004   0.000   0.000   0.005   0.000
  0.000   0.000   0.000   0.000  -0.004   0.000   0.000   0.005
 total augmentation occupancy for first ion, spin component:           1
  1.554  -0.899  -0.029  -0.027  -0.025   0.015   0.014   0.013
 -0.899   1.068  -0.062  -0.060  -0.058   0.068   0.068   0.066
 -0.029  -0.062   0.985  -0.115  -0.106  -0.714   0.086   0.084
 -0.027  -0.060  -0.115   0.978  -0.104   0.087  -0.711   0.084
 -0.025  -0.058  -0.106  -0.104   0.986   0.084   0.083  -0.713
  0.015   0.068  -0.714   0.087   0.084   0.580  -0.064  -0.064
  0.014   0.068   0.086  -0.711   0.083  -0.064   0.579  -0.064
  0.013   0.066   0.084   0.084  -0.713  -0.064  -0.064   0.579


------------------------ aborting loop because EDIFF is reached ----------------------------------------




--------------------------------------------------------------------------------------------------------


    CHARGE:  VPU time    0.13: CPU time    0.13
    FORLOC:  VPU time    0.01: CPU time    0.01
    FORNL :  VPU time    0.56: CPU time    0.56
    STRESS:  VPU time    1.61: CPU time    1.61
    FORCOR:  VPU time    0.07: CPU time    0.07
    FORHAR:  VPU time    0.03: CPU time    0.03
    MIXING:  VPU time    0.00: CPU time    0.00
 d Force =-0.7468217E-05[-0.672E-04, 0.523E-04]  d Energy =-0.1422364E-05-0.605E-05
 d Force =-0.1879289E-02[-0.216E-02,-0.160E-02]  d Ewald  =-0.1879280E-02-0.907E-08


--------------------------------------------------------------------------------------------------------



  FREE ENERGIE OF THE ION-ELECTRON SYSTEM (eV)
  ---------------------------------------------------
  free  energy   TOTEN  =      -347.596874 eV

  energy  without entropy=     -347.596874  energy(sigma->0) =     -347.596874
 

  FORCE on cell =-STRESS in cart. coord.  units (eV/reduce length):
  Direction    X        Y        Z        XY       YZ       ZX
  --------------------------------------------------------------------------------------
  Alpha Z    105.85    105.85    105.85
  Ewald    -2420.61  -2420.61  -2420.61     -0.72     -0.72     -0.72
  Hartree    164.31    164.31    164.31      0.44      0.44      0.44
  E(xc)     -811.89   -811.89   -811.89      0.14      0.14      0.14
  Local     -958.74   -958.74   -958.74      3.74      3.74      3.74
  n-local   2487.00   2488.70   2483.41     -1.49     -4.61     -1.31
  augment   -370.24   -370.24   -370.24      0.21      0.21      0.21
  Kinetic   1801.47   1810.68   1801.81      2.58     -2.64      2.26
  -------------------------------------------------------------------------------------
  Total       -0.29     -0.29     -0.29      2.07      2.07      2.07
  in kB       -0.36     -0.36     -0.36      2.53      2.53      2.53
  external pressure =       -0.36 kB  Pullay stress =        0.00 kB


 VOLUME and BASIS-vectors are now :
 -----------------------------------------------------------------------------
  energy-cutoff  :      200.00
  volume of cell :     1313.65
      direct lattice vectors                 reciprocal lattice vectors
    10.952000000  0.000000000  0.000000000     0.091307524  0.000000000  0.000000000
     0.000000000 10.952000000  0.000000000     0.000000000  0.091307524  0.000000000
     0.000000000  0.000000000 10.952000000     0.000000000  0.000000000  0.091307524

  length of vectors
    10.952000000 10.952000000 10.952000000     0.091307524  0.091307524  0.091307524


 FORCES acting on ions
    electron-ion (+dipol)            ewald-force                    non-local-force                 convergence-correction
 -----------------------------------------------------------------------------------------------
   -.678E+00 -.678E+00 -.678E+00   0.435E+00 0.435E+00 0.435E+00   0.249E+00 0.249E+00 0.249E+00   0.108E-04 0.108E-04 0.113E-04
   0.263E+01 0.263E+01 0.628E+01   -.234E+01 -.234E+01 -.586E+01   -.290E+00 -.290E+00 -.418E+00   -.120E-03 -.120E-03 0.247E-03
   0.263E+01 0.628E+01 0.263E+01   -.234E+01 -.586E+01 -.234E+01   -.290E+00 -.418E+00 -.290E+00   -.120E-03 0.247E-03 -.120E-03
   0.628E+01 0.263E+01 0.263E+01   -.586E+01 -.234E+01 -.234E+01   -.418E+00 -.290E+00 -.290E+00   0.247E-03 -.120E-03 -.120E-03
   0.604E+00 0.604E+00 0.604E+00   -.376E+00 -.376E+00 -.376E+00   -.223E+00 -.223E+00 -.223E+00   0.262E-04 0.262E-04 0.257E-04
   -.121E+01 -.121E+01 -.809E+00   0.131E+01 0.131E+01 0.468E+00   -.981E-01 -.981E-01 0.343E+00   0.830E-05 0.830E-05 -.121E-03
   -.121E+01 -.809E+00 -.121E+01   0.131E+01 0.468E+00 0.131E+01   -.981E-01 0.343E+00 -.981E-01   0.849E-05 -.120E-03 0.827E-05
   -.809E+00 -.121E+01 -.121E+01   0.468E+00 0.131E+01 0.131E+01   0.343E+00 -.981E-01 -.981E-01   -.120E-03 0.849E-05 0.827E-05
   -.819E-01 -.819E-01 0.883E+00   0.804E-01 0.804E-01 -.916E+00   0.543E-03 0.543E-03 0.347E-01   0.750E-05 0.750E-05 -.470E-04
   0.402E+00 0.402E+00 -.107E+01   -.298E+00 -.298E+00 0.117E+01   -.103E+00 -.103E+00 -.112E+00   -.486E-04 -.486E-04 -.160E-04
   0.687E+00 -.145E+01 -.261E+01   -.551E+00 0.147E+01 0.237E+01   -.135E+00 -.200E-01 0.246E+00   0.905E-04 -.337E-05 -.529E-04
   -.145E+01 0.687E+00 -.261E+01   0.147E+01 -.551E+00 0.237E+01   -.200E-01 -.135E+00 0.246E+00   -.337E-05 0.905E-04 -.529E-04
   0.886E-01 0.886E-01 -.899E+00   -.867E-01 -.867E-01 0.929E+00   -.301E-02 -.301E-02 -.276E-01   -.712E-06 -.712E-06 -.966E-04
   -.245E+00 -.245E+00 -.474E+00   0.224E+00 0.224E+00 0.496E+00   0.236E-01 0.236E-01 -.192E-01   -.271E-04 -.271E-04 0.770E-04
   0.261E+01 0.143E+01 -.680E+00   -.237E+01 -.146E+01 0.547E+00   -.248E+00 0.227E-01 0.134E+00   0.211E-04 0.518E-05 0.725E-04
   0.143E+01 0.261E+01 -.680E+00   -.146E+01 -.237E+01 0.547E+00   0.227E-01 -.248E+00 0.134E+00   0.518E-05 0.211E-04 0.725E-04
   -.819E-01 0.883E+00 -.819E-01   0.804E-01 -.916E+00 0.804E-01   0.543E-03 0.347E-01 0.543E-03   0.790E-05 -.469E-04 0.788E-05
   0.687E+00 -.261E+01 -.145E+01   -.551E+00 0.237E+01 0.147E+01   -.135E+00 0.246E+00 -.200E-01   0.902E-04 -.532E-04 -.344E-05
   0.402E+00 -.107E+01 0.402E+00   -.298E+00 0.117E+01 -.298E+00   -.103E+00 -.112E+00 -.103E+00   -.488E-04 -.161E-04 -.489E-04
   -.145E+01 -.261E+01 0.687E+00   0.147E+01 0.237E+01 -.551E+00   -.200E-01 0.246E+00 -.135E+00   -.368E-05 -.531E-04 0.901E-04
   0.886E-01 -.899E+00 0.886E-01   -.867E-01 0.929E+00 -.867E-01   -.301E-02 -.276E-01 -.301E-02   -.111E-05 -.967E-04 -.109E-05
   0.261E+01 -.680E+00 0.143E+01   -.237E+01 0.547E+00 -.146E+01   -.248E+00 0.134E+00 0.227E-01   0.211E-04 0.724E-04 0.494E-05
   -.245E+00 -.474E+00 -.245E+00   0.224E+00 0.496E+00 0.224E+00   0.236E-01 -.192E-01 0.236E-01   -.271E-04 0.768E-04 -.272E-04
   0.143E+01 -.680E+00 0.261E+01   -.146E+01 0.547E+00 -.237E+01   0.227E-01 0.134E+00 -.248E+00   0.487E-05 0.720E-04 0.208E-04
   0.163E+01 -.178E+00 -.178E+00   -.120E+01 0.146E+00 0.146E+00   -.427E+00 0.326E-01 0.326E-01   0.171E-03 -.109E-03 -.109E-03
   0.107E+00 -.396E+00 0.240E+00   -.149E-01 0.315E+00 -.243E+00   -.910E-01 0.815E-01 -.298E-03   -.115E-04 -.608E-04 -.572E-05
   0.107E+00 0.240E+00 -.396E+00   -.149E-01 -.243E+00 0.315E+00   -.910E-01 -.298E-03 0.815E-01   -.116E-04 -.579E-05 -.605E-04
   0.782E+00 0.122E+01 0.122E+01   -.447E+00 -.132E+01 -.132E+01   -.334E+00 0.101E+00 0.101E+00   -.108E-03 0.160E-05 0.182E-05
   -.162E+01 0.180E+00 0.180E+00   0.119E+01 -.148E+00 -.148E+00   0.421E+00 -.314E-01 -.314E-01   0.171E-03 -.101E-03 -.101E-03
   0.388E+00 -.128E+00 -.217E+00   -.308E+00 0.338E-01 0.220E+00   -.800E-01 0.949E-01 -.480E-02   -.968E-04 0.970E-05 -.125E-04
   0.388E+00 -.217E+00 -.128E+00   -.308E+00 0.220E+00 0.338E-01   -.800E-01 -.480E-02 0.949E-01   -.970E-04 -.126E-04 0.981E-05
   -.627E+01 -.263E+01 -.263E+01   0.586E+01 0.234E+01 0.234E+01   0.413E+00 0.289E+00 0.289E+00   0.228E-03 -.145E-03 -.144E-03
   0.883E+00 -.819E-01 -.819E-01   -.916E+00 0.804E-01 0.804E-01   0.347E-01 0.543E-03 0.543E-03   -.469E-04 0.790E-05 0.788E-05
   -.261E+01 0.687E+00 -.145E+01   0.237E+01 -.551E+00 0.147E+01   0.246E+00 -.135E+00 -.200E-01   -.532E-04 0.902E-04 -.344E-05
   -.261E+01 -.145E+01 0.687E+00   0.237E+01 0.147E+01 -.551E+00   0.246E+00 -.200E-01 -.135E+00   -.531E-04 -.368E-05 0.901E-04
   -.107E+01 0.402E+00 0.402E+00   0.117E+01 -.298E+00 -.298E+00   -.112E+00 -.103E+00 -.103E+00   -.161E-04 -.488E-04 -.489E-04
   -.899E+00 0.886E-01 0.886E-01   0.929E+00 -.867E-01 -.867E-01   -.276E-01 -.301E-02 -.301E-02   -.967E-04 -.111E-05 -.109E-05
   -.680E+00 0.261E+01 0.143E+01   0.547E+00 -.237E+01 -.146E+01   0.134E+00 -.248E+00 0.227E-01   0.724E-04 0.211E-04 0.494E-05
   -.680E+00 0.143E+01 0.261E+01   0.547E+00 -.146E+01 -.237E+01   0.134E+00 0.227E-01 -.248E+00   0.720E-04 0.487E-05 0.208E-04
   -.474E+00 -.245E+00 -.245E+00   0.496E+00 0.224E+00 0.224E+00   -.192E-01 0.236E-01 0.236E-01   0.768E-04 -.271E-04 -.272E-04
   -.178E+00 0.163E+01 -.178E+00   0.146E+00 -.120E+01 0.146E+00   0.326E-01 -.427E+00 0.326E-01   -.109E-03 0.171E-03 -.109E-03
   -.396E+00 0.107E+00 0.240E+00   0.315E+00 -.149E-01 -.243E+00   0.815E-01 -.910E-01 -.298E-03   -.608E-04 -.115E-04 -.572E-05
   0.122E+01 0.782E+00 0.122E+01   -.132E+01 -.447E+00 -.132E+01   0.101E+00 -.334E+00 0.101E+00   0.160E-05 -.108E-03 0.182E-05
   0.240E+00 0.107E+00 -.396E+00   -.243E+00 -.149E-01 0.315E+00   -.298E-03 -.910E-01 0.815E-01   -.579E-05 -.116E-04 -.605E-04
   0.180E+00 -.162E+01 0.180E+00   -.148E+00 0.119E+01 -.148E+00   -.314E-01 0.421E+00 -.314E-01   -.101E-03 0.171E-03 -.101E-03
   -.128E+00 0.388E+00 -.217E+00   0.338E-01 -.308E+00 0.220E+00   0.949E-01 -.800E-01 -.480E-02   0.970E-05 -.968E-04 -.125E-04
   -.263E+01 -.627E+01 -.263E+01   0.234E+01 0.586E+01 0.234E+01   0.289E+00 0.413E+00 0.289E+00   -.145E-03 0.228E-03 -.144E-03
   -.217E+00 0.388E+00 -.128E+00   0.220E+00 -.308E+00 0.338E-01   -.480E-02 -.800E-01 0.949E-01   -.126E-04 -.970E-04 0.981E-05
   -.178E+00 -.178E+00 0.163E+01   0.146E+00 0.146E+00 -.120E+01   0.326E-01 0.326E-01 -.427E+00   -.109E-03 -.109E-03 0.171E-03
   0.122E+01 0.122E+01 0.782E+00   -.132E+01 -.132E+01 -.447E+00   0.101E+00 0.101E+00 -.334E+00   0.179E-05 0.179E-05 -.108E-03
   -.396E+00 0.240E+00 0.107E+00   0.315E+00 -.243E+00 -.149E-01   0.815E-01 -.298E-03 -.910E-01   -.606E-04 -.556E-05 -.117E-04
   0.240E+00 -.396E+00 0.107E+00   -.243E+00 0.315E+00 -.149E-01   -.298E-03 0.815E-01 -.910E-01   -.556E-05 -.606E-04 -.117E-04
   0.180E+00 0.180E+00 -.162E+01   -.148E+00 -.148E+00 0.119E+01   -.314E-01 -.314E-01 0.421E+00   -.101E-03 -.101E-03 0.171E-03
   -.263E+01 -.263E+01 -.627E+01   0.234E+01 0.234E+01 0.586E+01   0.289E+00 0.289E+00 0.413E+00   -.145E-03 -.145E-03 0.228E-03
   -.128E+00 -.217E+00 0.388E+00   0.338E-01 0.220E+00 -.308E+00   0.949E-01 -.480E-02 -.800E-01   0.972E-05 -.124E-04 -.971E-04
   -.217E+00 -.128E+00 0.388E+00   0.220E+00 0.338E-01 -.308E+00   -.480E-02 0.949E-01 -.800E-01   -.124E-04 0.972E-05 -.971E-04
   -.267E-01 -.267E-01 -.267E-01   0.698E-01 0.698E-01 0.698E-01   -.442E-01 -.442E-01 -.442E-01   0.273E-04 0.273E-04 0.273E-04
   0.237E+00 0.237E+00 0.453E+00   -.216E+00 -.216E+00 -.478E+00   -.193E-01 -.193E-01 0.284E-01   0.563E-05 0.563E-05 0.296E-04
   0.237E+00 0.453E+00 0.237E+00   -.216E+00 -.478E+00 -.216E+00   -.193E-01 0.284E-01 -.193E-01   0.556E-05 0.298E-04 0.566E-05
   0.453E+00 0.237E+00 0.237E+00   -.478E+00 -.216E+00 -.216E+00   0.284E-01 -.193E-01 -.193E-01   0.298E-04 0.556E-05 0.566E-05
   0.274E-01 0.274E-01 0.274E-01   -.716E-01 -.716E-01 -.716E-01   0.445E-01 0.445E-01 0.445E-01   0.256E-04 0.256E-04 0.256E-04
   -.404E+00 -.404E+00 0.111E+01   0.302E+00 0.302E+00 -.122E+01   0.103E+00 0.103E+00 0.991E-01   -.107E-04 -.107E-04 -.442E-04
   -.404E+00 0.111E+01 -.404E+00   0.302E+00 -.122E+01 0.302E+00   0.103E+00 0.991E-01 0.103E+00   -.105E-04 -.441E-04 -.104E-04
   0.111E+01 -.404E+00 -.404E+00   -.122E+01 0.302E+00 0.302E+00   0.991E-01 0.103E+00 0.103E+00   -.441E-04 -.105E-04 -.104E-04
   0.426E-01 0.426E-01 0.426E-01   -.647E-01 -.647E-01 -.647E-01   0.885E-02 0.885E-02 0.885E-02   0.165E-03 0.165E-03 0.165E-03
 -----------------------------------------------------------------------------------------------
   -.406E-01 -.406E-01 -.406E-01   -.208E-12 -.400E-13 -.206E-12   0.463E-01 0.463E-01 0.463E-01   -.422E-03 -.422E-03 -.422E-03
 
 
 POSITION                                       TOTAL-FORCE (eV/Angst)
 -----------------------------------------------------------------------------------
     10.69694     10.69694     10.69694         0.005158      0.005158      0.005158
      2.79880      2.79880     10.93261        -0.000168     -0.000168     -0.001512
      2.79880     10.93261      2.79880        -0.000168     -0.001512     -0.000168
     10.93261      2.79880      2.79880        -0.001512     -0.000168     -0.000168
      1.62273      1.62273      1.62273         0.005391      0.005391      0.005391
      4.13570      4.13570      1.38039         0.000273      0.000273      0.001881
      4.13570      1.38039      4.13570         0.000273      0.001881      0.000273
      1.38039      4.13570      4.13570         0.001881      0.000273      0.000273
     10.95093     10.95093      5.47801        -0.001005     -0.001005      0.001620
      2.74232      2.74232      5.48447         0.000263      0.000263     -0.004229
      2.73752      0.00606      8.20896         0.000654      0.001292     -0.000592
      0.00606      2.73752      8.20896         0.001292      0.000654     -0.000592
      1.36941      1.36941      6.84218        -0.001182     -0.001182      0.001629
      4.10934      4.10934      6.85141         0.002274      0.002274      0.002903
      4.11138      1.36194      9.58254        -0.000564      0.001061      0.000446
      1.36194      4.11138      9.58254         0.001061     -0.000564      0.000446
     10.95093      5.47801     10.95093        -0.001005      0.001620     -0.001005
      2.73752      8.20896      0.00606         0.000654     -0.000592      0.001292
      2.74232      5.48447      2.74232         0.000263     -0.004229      0.000263
      0.00606      8.20896      2.73752         0.001292     -0.000592      0.000654
      1.36941      6.84218      1.36941        -0.001182      0.001629     -0.001182
      4.11138      9.58254      1.36194        -0.000564      0.000446      0.001061
      4.10934      6.85141      4.10934         0.002274      0.002903      0.002274
      1.36194      9.58254      4.11138         0.001061      0.000446     -0.000564
     10.94786      5.48439      5.48439        -0.001222      0.000064      0.000064
      2.73714      8.21488      5.47545         0.000810      0.000323     -0.002458
      2.73714      5.47545      8.21488         0.000810     -0.002458      0.000323
     10.93945      8.18435      8.18435         0.001435      0.000465      0.000465
      1.37255      6.83580      6.83580        -0.001690      0.000263      0.000263
      4.10534      9.58311      6.84501         0.000025      0.000640     -0.001596
      4.10534      6.84501      9.58311         0.000025     -0.001596      0.000640
      1.38752      9.52132      9.52132        -0.001304     -0.000449     -0.000449
      5.47801     10.95093     10.95093         0.001620     -0.001005     -0.001005
      8.20896      2.73752      0.00606        -0.000592      0.000654      0.001292
      8.20896      0.00606      2.73752        -0.000592      0.001292      0.000654
      5.48447      2.74232      2.74232        -0.004229      0.000263      0.000263
      6.84218      1.36941      1.36941         0.001629     -0.001182     -0.001182
      9.58254      4.11138      1.36194         0.000446     -0.000564      0.001061
      9.58254      1.36194      4.11138         0.000446      0.001061     -0.000564
      6.85141      4.10934      4.10934         0.002903      0.002274      0.002274
      5.48439     10.94786      5.48439         0.000064     -0.001222      0.000064
      8.21488      2.73714      5.47545         0.000323      0.000810     -0.002458
      8.18435     10.93945      8.18435         0.000465      0.001435      0.000465
      5.47545      2.73714      8.21488        -0.002458      0.000810      0.000323
      6.83580      1.37255      6.83580         0.000263     -0.001690      0.000263
      9.58311      4.10534      6.84501         0.000640      0.000025     -0.001596
      9.52132      1.38752      9.52132        -0.000449     -0.001304     -0.000449
      6.84501      4.10534      9.58311        -0.001596      0.000025      0.000640
      5.48439      5.48439     10.94786         0.000064      0.000064     -0.001222
      8.18435      8.18435     10.93945         0.000465      0.000465      0.001435
      8.21488      5.47545      2.73714         0.000323     -0.002458      0.000810
      5.47545      8.21488      2.73714        -0.002458      0.000323      0.000810
      6.83580      6.83580      1.37255         0.000263      0.000263     -0.001690
      9.52132      9.52132      1.38752        -0.000449     -0.000449     -0.001304
      9.58311      6.84501      4.10534         0.000640     -0.001596      0.000025
      6.84501      9.58311      4.10534        -0.001596      0.000640      0.000025
      5.47606      5.47606      5.47606        -0.001177     -0.001177     -0.001177
      8.21048      8.21048      5.46837         0.001751      0.001751      0.002775
      8.21048      5.46837      8.21048         0.001751      0.002775      0.001751
      5.46837      8.21048      8.21048         0.002775      0.001751      0.001751
      6.84405      6.84405      6.84405         0.000251      0.000251      0.000251
      9.57768      9.57768      6.83597         0.000097      0.000097     -0.004112
      9.57768      6.83597      9.57768         0.000097     -0.004112      0.000097
      6.83597      9.57768      9.57768        -0.004112      0.000097      0.000097
      0.68489      0.68489      0.68489        -0.013165     -0.013165     -0.013165
 -----------------------------------------------------------------------------------
    total drift:                                0.005264      0.005264      0.005254


--------------------------------------------------------------------------------------------------------




--------------------------------------------------------------------------------------------------------


  
 reached required accuracy - stopping structural energy minimisation
 writing wavefunctions
     LOOP+:  VPU time   34.46: CPU time   35.15
  
  
 General timing and accounting informations for this job:
 ========================================================
  
                  Total CPU time used (sec):      438.343
                            User time (sec):      433.020
                          System time (sec):        5.323
                         Elapsed time (sec):      441.569
  
                   Maximum memory used (kb):           0.
                   Average memory used (kb):           0.
  
                          Minor page faults:      1494832
                          Major page faults:          221
                 Voluntary context switches:         5543
